<?xml version="1.0" encoding="UTF-8"?>

<!-- generated on 06/25/16 22:44:09 by SUMO Version 0.26.0
<?xml version="1.0" encoding="UTF-8"?>

<configuration xmlns:xsi="http://www.w3.org/2001/XMLSchema-instance" xsi:noNamespaceSchemaLocation="http://sumo.dlr.de/xsd/sumoConfiguration.xsd">

    <input>
        <net-file value="F:\v-net\ns-3\SDNData\input.3net.xml"/>
        <route-files value="F:\v-net\ns-3\SDNData\input.3rou.xml"/>
    </input>

    <output>
        <fcd-output value="F:\v-net\ns-3\SDNData\3fcd.xml"/>
    </output>

</configuration>
-->

<fcd-export xmlns:xsi="http://www.w3.org/2001/XMLSchema-instance" xsi:noNamespaceSchemaLocation="http://sumo.dlr.de/xsd/fcd_file.xsd">
    <timestep time="0.00">
        <vehicle id="0" x="5.10" y="-8.25" angle="90.00" type="DEFAULT_VEHTYPE" speed="13.37" pos="5.10" lane="a_0" slope="0.00"/>
        <vehicle id="1" x="5.10" y="-4.95" angle="90.00" type="DEFAULT_VEHTYPE" speed="10.69" pos="5.10" lane="a_1" slope="0.00"/>
        <vehicle id="2" x="5.10" y="-1.65" angle="90.00" type="DEFAULT_VEHTYPE" speed="0.68" pos="5.10" lane="a_2" slope="0.00"/>
    </timestep>
    <timestep time="1.00">
        <vehicle id="0" x="19.13" y="-8.25" angle="90.00" type="DEFAULT_VEHTYPE" speed="14.03" pos="19.13" lane="a_0" slope="0.00"/>
        <vehicle id="1" x="18.33" y="-4.95" angle="90.00" type="DEFAULT_VEHTYPE" speed="13.23" pos="18.33" lane="a_1" slope="0.00"/>
        <vehicle id="2" x="7.62" y="-1.65" angle="90.00" type="DEFAULT_VEHTYPE" speed="2.52" pos="7.62" lane="a_2" slope="0.00"/>
        <vehicle id="3" x="5.10" y="-8.25" angle="90.00" type="DEFAULT_VEHTYPE" speed="3.71" pos="5.10" lane="a_0" slope="0.00"/>
        <vehicle id="4" x="5.10" y="-4.95" angle="90.00" type="DEFAULT_VEHTYPE" speed="8.18" pos="5.10" lane="a_1" slope="0.00"/>
    </timestep>
    <timestep time="2.00">
        <vehicle id="0" x="33.55" y="-8.25" angle="90.00" type="DEFAULT_VEHTYPE" speed="14.41" pos="33.55" lane="a_0" slope="0.00"/>
        <vehicle id="1" x="32.46" y="-4.95" angle="90.00" type="DEFAULT_VEHTYPE" speed="14.13" pos="32.46" lane="a_1" slope="0.00"/>
        <vehicle id="2" x="12.72" y="-1.65" angle="90.00" type="DEFAULT_VEHTYPE" speed="5.11" pos="12.72" lane="a_2" slope="0.00"/>
        <vehicle id="3" x="10.68" y="-8.25" angle="90.00" type="DEFAULT_VEHTYPE" speed="5.58" pos="10.68" lane="a_0" slope="0.00"/>
        <vehicle id="4" x="15.22" y="-4.95" angle="90.00" type="DEFAULT_VEHTYPE" speed="10.12" pos="15.22" lane="a_1" slope="0.00"/>
        <vehicle id="5" x="5.10" y="-1.65" angle="90.00" type="DEFAULT_VEHTYPE" speed="0.73" pos="5.10" lane="a_2" slope="0.00"/>
    </timestep>
    <timestep time="3.00">
        <vehicle id="0" x="47.88" y="-8.25" angle="90.00" type="DEFAULT_VEHTYPE" speed="14.33" pos="47.88" lane="a_0" slope="0.00"/>
        <vehicle id="1" x="46.57" y="-4.95" angle="90.00" type="DEFAULT_VEHTYPE" speed="14.11" pos="46.57" lane="a_1" slope="0.00"/>
        <vehicle id="2" x="19.29" y="-1.65" angle="90.00" type="DEFAULT_VEHTYPE" speed="6.57" pos="19.29" lane="a_2" slope="0.00"/>
        <vehicle id="3" x="18.45" y="-8.25" angle="90.00" type="DEFAULT_VEHTYPE" speed="7.78" pos="18.45" lane="a_0" slope="0.00"/>
        <vehicle id="4" x="27.89" y="-4.95" angle="90.00" type="DEFAULT_VEHTYPE" speed="12.66" pos="27.89" lane="a_1" slope="0.00"/>
        <vehicle id="5" x="5.71" y="-1.65" angle="90.00" type="DEFAULT_VEHTYPE" speed="0.61" pos="5.71" lane="a_2" slope="0.00"/>
        <vehicle id="6" x="5.10" y="-8.25" angle="90.00" type="DEFAULT_VEHTYPE" speed="6.81" pos="5.10" lane="a_0" slope="0.00"/>
        <vehicle id="7" x="5.10" y="-4.95" angle="90.00" type="DEFAULT_VEHTYPE" speed="13.53" pos="5.10" lane="a_1" slope="0.00"/>
    </timestep>
    <timestep time="4.00">
        <vehicle id="0" x="62.49" y="-8.25" angle="90.00" type="DEFAULT_VEHTYPE" speed="14.61" pos="62.49" lane="a_0" slope="0.00"/>
        <vehicle id="1" x="60.86" y="-4.95" angle="90.00" type="DEFAULT_VEHTYPE" speed="14.29" pos="60.86" lane="a_1" slope="0.00"/>
        <vehicle id="2" x="27.31" y="-1.65" angle="90.00" type="DEFAULT_VEHTYPE" speed="8.02" pos="27.31" lane="a_2" slope="0.00"/>
        <vehicle id="3" x="27.84" y="-8.25" angle="90.00" type="DEFAULT_VEHTYPE" speed="9.38" pos="27.84" lane="a_0" slope="0.00"/>
        <vehicle id="4" x="40.92" y="-4.95" angle="90.00" type="DEFAULT_VEHTYPE" speed="13.03" pos="40.92" lane="a_1" slope="0.00"/>
        <vehicle id="5" x="8.41" y="-1.65" angle="90.00" type="DEFAULT_VEHTYPE" speed="2.70" pos="8.41" lane="a_2" slope="0.00"/>
        <vehicle id="6" x="11.71" y="-8.25" angle="90.00" type="DEFAULT_VEHTYPE" speed="6.61" pos="11.71" lane="a_0" slope="0.00"/>
        <vehicle id="7" x="18.59" y="-4.95" angle="90.00" type="DEFAULT_VEHTYPE" speed="13.49" pos="18.59" lane="a_1" slope="0.00"/>
    </timestep>
    <timestep time="5.00">
        <vehicle id="0" x="76.95" y="-8.25" angle="90.00" type="DEFAULT_VEHTYPE" speed="14.47" pos="76.95" lane="a_0" slope="0.00"/>
        <vehicle id="1" x="75.43" y="-4.95" angle="90.00" type="DEFAULT_VEHTYPE" speed="14.57" pos="75.43" lane="a_1" slope="0.00"/>
        <vehicle id="10" x="5.10" y="-4.95" angle="90.00" type="DEFAULT_VEHTYPE" speed="8.57" pos="5.10" lane="a_1" slope="0.00"/>
        <vehicle id="2" x="37.88" y="-1.65" angle="90.00" type="DEFAULT_VEHTYPE" speed="10.58" pos="37.88" lane="a_2" slope="0.00"/>
        <vehicle id="3" x="38.57" y="-8.25" angle="90.00" type="DEFAULT_VEHTYPE" speed="10.73" pos="38.57" lane="a_0" slope="0.00"/>
        <vehicle id="4" x="54.58" y="-4.95" angle="90.00" type="DEFAULT_VEHTYPE" speed="13.66" pos="54.58" lane="a_1" slope="0.00"/>
        <vehicle id="5" x="12.81" y="-1.65" angle="90.00" type="DEFAULT_VEHTYPE" speed="4.41" pos="12.81" lane="a_2" slope="0.00"/>
        <vehicle id="6" x="20.50" y="-8.25" angle="90.00" type="DEFAULT_VEHTYPE" speed="8.79" pos="20.50" lane="a_0" slope="0.00"/>
        <vehicle id="7" x="32.02" y="-4.95" angle="90.00" type="DEFAULT_VEHTYPE" speed="13.43" pos="32.02" lane="a_1" slope="0.00"/>
        <vehicle id="8" x="5.10" y="-1.65" angle="90.00" type="DEFAULT_VEHTYPE" speed="0.21" pos="5.10" lane="a_2" slope="0.00"/>
        <vehicle id="9" x="5.10" y="-8.25" angle="90.00" type="DEFAULT_VEHTYPE" speed="2.52" pos="5.10" lane="a_0" slope="0.00"/>
    </timestep>
    <timestep time="6.00">
        <vehicle id="0" x="90.70" y="-8.25" angle="90.00" type="DEFAULT_VEHTYPE" speed="13.75" pos="90.70" lane="a_0" slope="0.00"/>
        <vehicle id="1" x="89.50" y="-4.95" angle="90.00" type="DEFAULT_VEHTYPE" speed="14.07" pos="89.50" lane="a_1" slope="0.00"/>
        <vehicle id="10" x="15.06" y="-4.95" angle="90.00" type="DEFAULT_VEHTYPE" speed="9.96" pos="15.06" lane="a_1" slope="0.00"/>
        <vehicle id="2" x="50.00" y="-1.65" angle="90.00" type="DEFAULT_VEHTYPE" speed="12.12" pos="50.00" lane="a_2" slope="0.00"/>
        <vehicle id="3" x="51.50" y="-8.25" angle="90.00" type="DEFAULT_VEHTYPE" speed="12.93" pos="51.50" lane="a_0" slope="0.00"/>
        <vehicle id="4" x="68.07" y="-4.95" angle="90.00" type="DEFAULT_VEHTYPE" speed="13.49" pos="68.07" lane="a_1" slope="0.00"/>
        <vehicle id="5" x="19.70" y="-1.65" angle="90.00" type="DEFAULT_VEHTYPE" speed="6.89" pos="19.70" lane="a_2" slope="0.00"/>
        <vehicle id="6" x="30.53" y="-8.25" angle="90.00" type="DEFAULT_VEHTYPE" speed="10.04" pos="30.53" lane="a_0" slope="0.00"/>
        <vehicle id="7" x="45.13" y="-4.95" angle="90.00" type="DEFAULT_VEHTYPE" speed="13.11" pos="45.13" lane="a_1" slope="0.00"/>
        <vehicle id="8" x="5.24" y="-1.65" angle="90.00" type="DEFAULT_VEHTYPE" speed="0.14" pos="5.24" lane="a_2" slope="0.00"/>
        <vehicle id="9" x="9.47" y="-8.25" angle="90.00" type="DEFAULT_VEHTYPE" speed="4.37" pos="9.47" lane="a_0" slope="0.00"/>
    </timestep>
    <timestep time="7.00">
        <vehicle id="0" x="104.50" y="-8.25" angle="90.00" type="DEFAULT_VEHTYPE" speed="13.79" pos="104.50" lane="a_0" slope="0.00"/>
        <vehicle id="1" x="104.30" y="-4.95" angle="90.00" type="DEFAULT_VEHTYPE" speed="14.80" pos="104.30" lane="a_1" slope="0.00"/>
        <vehicle id="10" x="26.91" y="-4.95" angle="90.00" type="DEFAULT_VEHTYPE" speed="11.85" pos="26.91" lane="a_1" slope="0.00"/>
        <vehicle id="2" x="63.48" y="-1.65" angle="90.00" type="DEFAULT_VEHTYPE" speed="13.48" pos="63.48" lane="a_2" slope="0.00"/>
        <vehicle id="3" x="66.41" y="-8.25" angle="90.00" type="DEFAULT_VEHTYPE" speed="14.91" pos="66.41" lane="a_0" slope="0.00"/>
        <vehicle id="4" x="82.07" y="-4.95" angle="90.00" type="DEFAULT_VEHTYPE" speed="14.00" pos="82.07" lane="a_1" slope="0.00"/>
        <vehicle id="5" x="28.95" y="-1.65" angle="90.00" type="DEFAULT_VEHTYPE" speed="9.25" pos="28.95" lane="a_2" slope="0.00"/>
        <vehicle id="6" x="42.93" y="-8.25" angle="90.00" type="DEFAULT_VEHTYPE" speed="12.40" pos="42.93" lane="a_0" slope="0.00"/>
        <vehicle id="7" x="58.75" y="-4.95" angle="90.00" type="DEFAULT_VEHTYPE" speed="13.62" pos="58.75" lane="a_1" slope="0.00"/>
        <vehicle id="8" x="7.15" y="-1.65" angle="90.00" type="DEFAULT_VEHTYPE" speed="1.91" pos="7.15" lane="a_2" slope="0.00"/>
        <vehicle id="9" x="15.14" y="-8.25" angle="90.00" type="DEFAULT_VEHTYPE" speed="5.68" pos="15.14" lane="a_0" slope="0.00"/>
    </timestep>
    <timestep time="8.00">
        <vehicle id="0" x="118.56" y="-8.25" angle="90.00" type="DEFAULT_VEHTYPE" speed="14.06" pos="118.56" lane="a_0" slope="0.00"/>
        <vehicle id="1" x="119.03" y="-4.95" angle="90.00" type="DEFAULT_VEHTYPE" speed="14.73" pos="119.03" lane="a_1" slope="0.00"/>
        <vehicle id="10" x="41.25" y="-4.95" angle="90.00" type="DEFAULT_VEHTYPE" speed="14.34" pos="41.25" lane="a_1" slope="0.00"/>
        <vehicle id="2" x="78.04" y="-1.65" angle="90.00" type="DEFAULT_VEHTYPE" speed="14.56" pos="78.04" lane="a_2" slope="0.00"/>
        <vehicle id="3" x="80.95" y="-8.25" angle="90.00" type="DEFAULT_VEHTYPE" speed="14.54" pos="80.95" lane="a_0" slope="0.00"/>
        <vehicle id="4" x="96.62" y="-4.95" angle="90.00" type="DEFAULT_VEHTYPE" speed="14.55" pos="96.62" lane="a_1" slope="0.00"/>
        <vehicle id="5" x="40.69" y="-1.65" angle="90.00" type="DEFAULT_VEHTYPE" speed="11.74" pos="40.69" lane="a_2" slope="0.00"/>
        <vehicle id="6" x="57.56" y="-8.25" angle="90.00" type="DEFAULT_VEHTYPE" speed="14.62" pos="57.56" lane="a_0" slope="0.00"/>
        <vehicle id="7" x="73.14" y="-4.95" angle="90.00" type="DEFAULT_VEHTYPE" speed="14.39" pos="73.14" lane="a_1" slope="0.00"/>
        <vehicle id="8" x="10.92" y="-1.65" angle="90.00" type="DEFAULT_VEHTYPE" speed="3.77" pos="10.92" lane="a_2" slope="0.00"/>
        <vehicle id="9" x="23.14" y="-8.25" angle="90.00" type="DEFAULT_VEHTYPE" speed="8.00" pos="23.14" lane="a_0" slope="0.00"/>
    </timestep>
    <timestep time="9.00">
        <vehicle id="0" x="133.08" y="-8.25" angle="90.00" type="DEFAULT_VEHTYPE" speed="14.53" pos="133.08" lane="a_0" slope="0.00"/>
        <vehicle id="1" x="133.37" y="-4.95" angle="90.00" type="DEFAULT_VEHTYPE" speed="14.33" pos="133.37" lane="a_1" slope="0.00"/>
        <vehicle id="10" x="55.71" y="-4.95" angle="90.00" type="DEFAULT_VEHTYPE" speed="14.46" pos="55.71" lane="a_1" slope="0.00"/>
        <vehicle id="11" x="5.10" y="-1.65" angle="90.00" type="DEFAULT_VEHTYPE" speed="1.57" pos="5.10" lane="a_2" slope="0.00"/>
        <vehicle id="12" x="5.10" y="-8.25" angle="90.00" type="DEFAULT_VEHTYPE" speed="13.13" pos="5.10" lane="a_0" slope="0.00"/>
        <vehicle id="13" x="5.10" y="-4.95" angle="90.00" type="DEFAULT_VEHTYPE" speed="9.38" pos="5.10" lane="a_1" slope="0.00"/>
        <vehicle id="2" x="92.49" y="-1.65" angle="90.00" type="DEFAULT_VEHTYPE" speed="14.45" pos="92.49" lane="a_2" slope="0.00"/>
        <vehicle id="3" x="94.68" y="-8.25" angle="90.00" type="DEFAULT_VEHTYPE" speed="13.73" pos="94.68" lane="a_0" slope="0.00"/>
        <vehicle id="4" x="110.32" y="-4.95" angle="90.00" type="DEFAULT_VEHTYPE" speed="13.70" pos="110.32" lane="a_1" slope="0.00"/>
        <vehicle id="5" x="54.23" y="-1.65" angle="90.00" type="DEFAULT_VEHTYPE" speed="13.54" pos="54.23" lane="a_2" slope="0.00"/>
        <vehicle id="6" x="72.41" y="-8.25" angle="90.00" type="DEFAULT_VEHTYPE" speed="14.85" pos="72.41" lane="a_0" slope="0.00"/>
        <vehicle id="7" x="87.29" y="-4.95" angle="90.00" type="DEFAULT_VEHTYPE" speed="14.15" pos="87.29" lane="a_1" slope="0.00"/>
        <vehicle id="8" x="16.78" y="-1.65" angle="90.00" type="DEFAULT_VEHTYPE" speed="5.86" pos="16.78" lane="a_2" slope="0.00"/>
        <vehicle id="9" x="33.35" y="-8.25" angle="90.00" type="DEFAULT_VEHTYPE" speed="10.21" pos="33.35" lane="a_0" slope="0.00"/>
    </timestep>
    <timestep time="10.00">
        <vehicle id="0" x="147.64" y="-8.25" angle="90.00" type="DEFAULT_VEHTYPE" speed="14.55" pos="147.64" lane="a_0" slope="0.00"/>
        <vehicle id="1" x="147.23" y="-4.95" angle="90.00" type="DEFAULT_VEHTYPE" speed="13.86" pos="147.23" lane="a_1" slope="0.00"/>
        <vehicle id="10" x="70.32" y="-4.95" angle="90.00" type="DEFAULT_VEHTYPE" speed="14.61" pos="70.32" lane="a_1" slope="0.00"/>
        <vehicle id="11" x="8.68" y="-1.65" angle="90.00" type="DEFAULT_VEHTYPE" speed="3.58" pos="8.68" lane="a_2" slope="0.00"/>
        <vehicle id="12" x="17.90" y="-8.25" angle="90.00" type="DEFAULT_VEHTYPE" speed="12.80" pos="17.90" lane="a_0" slope="0.00"/>
        <vehicle id="13" x="16.54" y="-4.95" angle="90.00" type="DEFAULT_VEHTYPE" speed="11.44" pos="16.54" lane="a_1" slope="0.00"/>
        <vehicle id="2" x="106.85" y="-1.65" angle="90.00" type="DEFAULT_VEHTYPE" speed="14.36" pos="106.85" lane="a_2" slope="0.00"/>
        <vehicle id="3" x="108.77" y="-8.25" angle="90.00" type="DEFAULT_VEHTYPE" speed="14.09" pos="108.77" lane="a_0" slope="0.00"/>
        <vehicle id="4" x="124.21" y="-4.95" angle="90.00" type="DEFAULT_VEHTYPE" speed="13.89" pos="124.21" lane="a_1" slope="0.00"/>
        <vehicle id="5" x="68.68" y="-1.65" angle="90.00" type="DEFAULT_VEHTYPE" speed="14.45" pos="68.68" lane="a_2" slope="0.00"/>
        <vehicle id="6" x="86.27" y="-8.25" angle="90.00" type="DEFAULT_VEHTYPE" speed="13.86" pos="86.27" lane="a_0" slope="0.00"/>
        <vehicle id="7" x="100.18" y="-4.95" angle="90.00" type="DEFAULT_VEHTYPE" speed="12.90" pos="100.18" lane="a_1" slope="0.00"/>
        <vehicle id="8" x="24.32" y="-1.65" angle="90.00" type="DEFAULT_VEHTYPE" speed="7.54" pos="24.32" lane="a_2" slope="0.00"/>
        <vehicle id="9" x="45.54" y="-8.25" angle="90.00" type="DEFAULT_VEHTYPE" speed="12.20" pos="45.54" lane="a_0" slope="0.00"/>
    </timestep>
    <timestep time="11.00">
        <vehicle id="0" x="162.13" y="-8.25" angle="90.00" type="DEFAULT_VEHTYPE" speed="14.49" pos="162.13" lane="a_0" slope="0.00"/>
        <vehicle id="1" x="162.05" y="-4.95" angle="90.00" type="DEFAULT_VEHTYPE" speed="14.82" pos="162.05" lane="a_1" slope="0.00"/>
        <vehicle id="10" x="84.70" y="-4.95" angle="90.00" type="DEFAULT_VEHTYPE" speed="14.38" pos="84.70" lane="a_1" slope="0.00"/>
        <vehicle id="11" x="13.93" y="-1.65" angle="90.00" type="DEFAULT_VEHTYPE" speed="5.25" pos="13.93" lane="a_2" slope="0.00"/>
        <vehicle id="12" x="32.21" y="-8.25" angle="90.00" type="DEFAULT_VEHTYPE" speed="14.31" pos="32.21" lane="a_0" slope="0.00"/>
        <vehicle id="13" x="30.53" y="-4.95" angle="90.00" type="DEFAULT_VEHTYPE" speed="13.99" pos="30.53" lane="a_1" slope="0.00"/>
        <vehicle id="14" x="5.10" y="-1.65" angle="90.00" type="DEFAULT_VEHTYPE" speed="2.08" pos="5.10" lane="a_2" slope="0.00"/>
        <vehicle id="15" x="5.10" y="-8.25" angle="90.00" type="DEFAULT_VEHTYPE" speed="5.17" pos="5.10" lane="a_0" slope="0.00"/>
        <vehicle id="16" x="5.10" y="-4.95" angle="90.00" type="DEFAULT_VEHTYPE" speed="9.95" pos="5.10" lane="a_1" slope="0.00"/>
        <vehicle id="2" x="121.49" y="-1.65" angle="90.00" type="DEFAULT_VEHTYPE" speed="14.63" pos="121.49" lane="a_2" slope="0.00"/>
        <vehicle id="3" x="122.89" y="-8.25" angle="90.00" type="DEFAULT_VEHTYPE" speed="14.12" pos="122.89" lane="a_0" slope="0.00"/>
        <vehicle id="4" x="137.34" y="-4.95" angle="90.00" type="DEFAULT_VEHTYPE" speed="13.13" pos="137.34" lane="a_1" slope="0.00"/>
        <vehicle id="5" x="82.76" y="-1.65" angle="90.00" type="DEFAULT_VEHTYPE" speed="14.07" pos="82.76" lane="a_2" slope="0.00"/>
        <vehicle id="6" x="99.31" y="-8.25" angle="90.00" type="DEFAULT_VEHTYPE" speed="13.05" pos="99.31" lane="a_0" slope="0.00"/>
        <vehicle id="7" x="114.25" y="-4.95" angle="90.00" type="DEFAULT_VEHTYPE" speed="14.07" pos="114.25" lane="a_1" slope="0.00"/>
        <vehicle id="8" x="34.30" y="-1.65" angle="90.00" type="DEFAULT_VEHTYPE" speed="9.98" pos="34.30" lane="a_2" slope="0.00"/>
        <vehicle id="9" x="59.24" y="-8.25" angle="90.00" type="DEFAULT_VEHTYPE" speed="13.70" pos="59.24" lane="a_0" slope="0.00"/>
    </timestep>
    <timestep time="12.00">
        <vehicle id="0" x="176.42" y="-8.25" angle="90.00" type="DEFAULT_VEHTYPE" speed="14.29" pos="176.42" lane="a_0" slope="0.00"/>
        <vehicle id="1" x="176.30" y="-4.95" angle="90.00" type="DEFAULT_VEHTYPE" speed="14.25" pos="176.30" lane="a_1" slope="0.00"/>
        <vehicle id="10" x="98.87" y="-4.95" angle="90.00" type="DEFAULT_VEHTYPE" speed="14.17" pos="98.87" lane="a_1" slope="0.00"/>
        <vehicle id="11" x="20.90" y="-1.65" angle="90.00" type="DEFAULT_VEHTYPE" speed="6.97" pos="20.90" lane="a_2" slope="0.00"/>
        <vehicle id="12" x="46.59" y="-8.25" angle="90.00" type="DEFAULT_VEHTYPE" speed="14.37" pos="46.59" lane="a_0" slope="0.00"/>
        <vehicle id="13" x="44.47" y="-4.95" angle="90.00" type="DEFAULT_VEHTYPE" speed="13.93" pos="44.47" lane="a_1" slope="0.00"/>
        <vehicle id="14" x="6.56" y="-1.65" angle="90.00" type="DEFAULT_VEHTYPE" speed="1.46" pos="6.56" lane="a_2" slope="0.00"/>
        <vehicle id="15" x="11.69" y="-8.25" angle="90.00" type="DEFAULT_VEHTYPE" speed="6.59" pos="11.69" lane="a_0" slope="0.00"/>
        <vehicle id="16" x="16.42" y="-4.95" angle="90.00" type="DEFAULT_VEHTYPE" speed="11.32" pos="16.42" lane="a_1" slope="0.00"/>
        <vehicle id="2" x="135.72" y="-1.65" angle="90.00" type="DEFAULT_VEHTYPE" speed="14.23" pos="135.72" lane="a_2" slope="0.00"/>
        <vehicle id="3" x="137.87" y="-8.25" angle="90.00" type="DEFAULT_VEHTYPE" speed="14.98" pos="137.87" lane="a_0" slope="0.00"/>
        <vehicle id="4" x="152.21" y="-4.95" angle="90.00" type="DEFAULT_VEHTYPE" speed="14.87" pos="152.21" lane="a_1" slope="0.00"/>
        <vehicle id="5" x="97.40" y="-1.65" angle="90.00" type="DEFAULT_VEHTYPE" speed="14.64" pos="97.40" lane="a_2" slope="0.00"/>
        <vehicle id="6" x="112.65" y="-8.25" angle="90.00" type="DEFAULT_VEHTYPE" speed="13.34" pos="112.65" lane="a_0" slope="0.00"/>
        <vehicle id="7" x="126.97" y="-4.95" angle="90.00" type="DEFAULT_VEHTYPE" speed="12.72" pos="126.97" lane="a_1" slope="0.00"/>
        <vehicle id="8" x="46.38" y="-1.65" angle="90.00" type="DEFAULT_VEHTYPE" speed="12.08" pos="46.38" lane="a_2" slope="0.00"/>
        <vehicle id="9" x="73.09" y="-8.25" angle="90.00" type="DEFAULT_VEHTYPE" speed="13.85" pos="73.09" lane="a_0" slope="0.00"/>
    </timestep>
    <timestep time="13.00">
        <vehicle id="0" x="191.27" y="-8.25" angle="90.00" type="DEFAULT_VEHTYPE" speed="14.85" pos="191.27" lane="a_0" slope="0.00"/>
        <vehicle id="1" x="190.44" y="-4.95" angle="90.00" type="DEFAULT_VEHTYPE" speed="14.14" pos="190.44" lane="a_1" slope="0.00"/>
        <vehicle id="10" x="113.12" y="-4.95" angle="90.00" type="DEFAULT_VEHTYPE" speed="14.26" pos="113.12" lane="a_1" slope="0.00"/>
        <vehicle id="11" x="30.02" y="-1.65" angle="90.00" type="DEFAULT_VEHTYPE" speed="9.13" pos="30.02" lane="a_2" slope="0.00"/>
        <vehicle id="12" x="60.29" y="-8.25" angle="90.00" type="DEFAULT_VEHTYPE" speed="13.70" pos="60.29" lane="a_0" slope="0.00"/>
        <vehicle id="13" x="58.28" y="-4.95" angle="90.00" type="DEFAULT_VEHTYPE" speed="13.82" pos="58.28" lane="a_1" slope="0.00"/>
        <vehicle id="14" x="10.63" y="-1.65" angle="90.00" type="DEFAULT_VEHTYPE" speed="4.06" pos="10.63" lane="a_2" slope="0.00"/>
        <vehicle id="15" x="20.25" y="-8.25" angle="90.00" type="DEFAULT_VEHTYPE" speed="8.56" pos="20.25" lane="a_0" slope="0.00"/>
        <vehicle id="16" x="29.81" y="-4.95" angle="90.00" type="DEFAULT_VEHTYPE" speed="13.39" pos="29.81" lane="a_1" slope="0.00"/>
        <vehicle id="2" x="150.27" y="-1.65" angle="90.00" type="DEFAULT_VEHTYPE" speed="14.55" pos="150.27" lane="a_2" slope="0.00"/>
        <vehicle id="3" x="151.77" y="-8.25" angle="90.00" type="DEFAULT_VEHTYPE" speed="13.89" pos="151.77" lane="a_0" slope="0.00"/>
        <vehicle id="4" x="165.85" y="-4.95" angle="90.00" type="DEFAULT_VEHTYPE" speed="13.64" pos="165.85" lane="a_1" slope="0.00"/>
        <vehicle id="5" x="111.36" y="-1.65" angle="90.00" type="DEFAULT_VEHTYPE" speed="13.96" pos="111.36" lane="a_2" slope="0.00"/>
        <vehicle id="6" x="126.58" y="-8.25" angle="90.00" type="DEFAULT_VEHTYPE" speed="13.93" pos="126.58" lane="a_0" slope="0.00"/>
        <vehicle id="7" x="141.96" y="-4.95" angle="90.00" type="DEFAULT_VEHTYPE" speed="14.98" pos="141.96" lane="a_1" slope="0.00"/>
        <vehicle id="8" x="60.46" y="-1.65" angle="90.00" type="DEFAULT_VEHTYPE" speed="14.07" pos="60.46" lane="a_2" slope="0.00"/>
        <vehicle id="9" x="87.58" y="-8.25" angle="90.00" type="DEFAULT_VEHTYPE" speed="14.49" pos="87.58" lane="a_0" slope="0.00"/>
    </timestep>
    <timestep time="14.00">
        <vehicle id="0" x="205.23" y="-8.25" angle="90.00" type="DEFAULT_VEHTYPE" speed="13.96" pos="205.23" lane="a_0" slope="0.00"/>
        <vehicle id="1" x="205.24" y="-4.95" angle="90.00" type="DEFAULT_VEHTYPE" speed="14.80" pos="205.24" lane="a_1" slope="0.00"/>
        <vehicle id="10" x="127.18" y="-4.95" angle="90.00" type="DEFAULT_VEHTYPE" speed="14.06" pos="127.18" lane="a_1" slope="0.00"/>
        <vehicle id="11" x="41.31" y="-1.65" angle="90.00" type="DEFAULT_VEHTYPE" speed="11.29" pos="41.31" lane="a_2" slope="0.00"/>
        <vehicle id="12" x="74.26" y="-8.25" angle="90.00" type="DEFAULT_VEHTYPE" speed="13.97" pos="74.26" lane="a_0" slope="0.00"/>
        <vehicle id="13" x="72.71" y="-4.95" angle="90.00" type="DEFAULT_VEHTYPE" speed="14.42" pos="72.71" lane="a_1" slope="0.00"/>
        <vehicle id="14" x="17.02" y="-1.65" angle="90.00" type="DEFAULT_VEHTYPE" speed="6.39" pos="17.02" lane="a_2" slope="0.00"/>
        <vehicle id="15" x="31.27" y="-8.25" angle="90.00" type="DEFAULT_VEHTYPE" speed="11.01" pos="31.27" lane="a_0" slope="0.00"/>
        <vehicle id="16" x="44.33" y="-4.95" angle="90.00" type="DEFAULT_VEHTYPE" speed="14.52" pos="44.33" lane="a_1" slope="0.00"/>
        <vehicle id="17" x="5.10" y="-1.65" angle="90.00" type="DEFAULT_VEHTYPE" speed="1.47" pos="5.10" lane="a_2" slope="0.00"/>
        <vehicle id="18" x="5.10" y="-8.25" angle="90.00" type="DEFAULT_VEHTYPE" speed="3.39" pos="5.10" lane="a_0" slope="0.00"/>
        <vehicle id="19" x="5.10" y="-4.95" angle="90.00" type="DEFAULT_VEHTYPE" speed="3.42" pos="5.10" lane="a_1" slope="0.00"/>
        <vehicle id="2" x="164.25" y="-1.65" angle="90.00" type="DEFAULT_VEHTYPE" speed="13.98" pos="164.25" lane="a_2" slope="0.00"/>
        <vehicle id="3" x="166.56" y="-8.25" angle="90.00" type="DEFAULT_VEHTYPE" speed="14.80" pos="166.56" lane="a_0" slope="0.00"/>
        <vehicle id="4" x="180.15" y="-4.95" angle="90.00" type="DEFAULT_VEHTYPE" speed="14.30" pos="180.15" lane="a_1" slope="0.00"/>
        <vehicle id="5" x="125.76" y="-1.65" angle="90.00" type="DEFAULT_VEHTYPE" speed="14.40" pos="125.76" lane="a_2" slope="0.00"/>
        <vehicle id="6" x="140.67" y="-8.25" angle="90.00" type="DEFAULT_VEHTYPE" speed="14.09" pos="140.67" lane="a_0" slope="0.00"/>
        <vehicle id="7" x="155.87" y="-4.95" angle="90.00" type="DEFAULT_VEHTYPE" speed="13.91" pos="155.87" lane="a_1" slope="0.00"/>
        <vehicle id="8" x="74.36" y="-1.65" angle="90.00" type="DEFAULT_VEHTYPE" speed="13.90" pos="74.36" lane="a_2" slope="0.00"/>
        <vehicle id="9" x="102.41" y="-8.25" angle="90.00" type="DEFAULT_VEHTYPE" speed="14.83" pos="102.41" lane="a_0" slope="0.00"/>
    </timestep>
    <timestep time="15.00">
        <vehicle id="0" x="220.12" y="-8.25" angle="90.00" type="DEFAULT_VEHTYPE" speed="14.89" pos="220.12" lane="a_0" slope="0.00"/>
        <vehicle id="1" x="219.93" y="-4.95" angle="90.00" type="DEFAULT_VEHTYPE" speed="14.69" pos="219.93" lane="a_1" slope="0.00"/>
        <vehicle id="10" x="140.99" y="-4.95" angle="90.00" type="DEFAULT_VEHTYPE" speed="13.81" pos="140.99" lane="a_1" slope="0.00"/>
        <vehicle id="11" x="54.10" y="-1.65" angle="90.00" type="DEFAULT_VEHTYPE" speed="12.79" pos="54.10" lane="a_2" slope="0.00"/>
        <vehicle id="12" x="88.30" y="-8.25" angle="90.00" type="DEFAULT_VEHTYPE" speed="14.04" pos="88.30" lane="a_0" slope="0.00"/>
        <vehicle id="13" x="86.97" y="-4.95" angle="90.00" type="DEFAULT_VEHTYPE" speed="14.26" pos="86.97" lane="a_1" slope="0.00"/>
        <vehicle id="14" x="25.40" y="-1.65" angle="90.00" type="DEFAULT_VEHTYPE" speed="8.39" pos="25.40" lane="a_2" slope="0.00"/>
        <vehicle id="15" x="44.01" y="-8.25" angle="90.00" type="DEFAULT_VEHTYPE" speed="12.75" pos="44.01" lane="a_0" slope="0.00"/>
        <vehicle id="16" x="58.30" y="-4.95" angle="90.00" type="DEFAULT_VEHTYPE" speed="13.97" pos="58.30" lane="a_1" slope="0.00"/>
        <vehicle id="17" x="8.92" y="-1.65" angle="90.00" type="DEFAULT_VEHTYPE" speed="3.82" pos="8.92" lane="a_2" slope="0.00"/>
        <vehicle id="18" x="10.93" y="-8.25" angle="90.00" type="DEFAULT_VEHTYPE" speed="5.83" pos="10.93" lane="a_0" slope="0.00"/>
        <vehicle id="19" x="10.59" y="-4.95" angle="90.00" type="DEFAULT_VEHTYPE" speed="5.49" pos="10.59" lane="a_1" slope="0.00"/>
        <vehicle id="2" x="178.06" y="-1.65" angle="90.00" type="DEFAULT_VEHTYPE" speed="13.80" pos="178.06" lane="a_2" slope="0.00"/>
        <vehicle id="3" x="180.82" y="-8.25" angle="90.00" type="DEFAULT_VEHTYPE" speed="14.26" pos="180.82" lane="a_0" slope="0.00"/>
        <vehicle id="4" x="193.93" y="-4.95" angle="90.00" type="DEFAULT_VEHTYPE" speed="13.78" pos="193.93" lane="a_1" slope="0.00"/>
        <vehicle id="5" x="140.34" y="-1.65" angle="90.00" type="DEFAULT_VEHTYPE" speed="14.58" pos="140.34" lane="a_2" slope="0.00"/>
        <vehicle id="6" x="155.63" y="-8.25" angle="90.00" type="DEFAULT_VEHTYPE" speed="14.95" pos="155.63" lane="a_0" slope="0.00"/>
        <vehicle id="7" x="170.50" y="-4.95" angle="90.00" type="DEFAULT_VEHTYPE" speed="14.63" pos="170.50" lane="a_1" slope="0.00"/>
        <vehicle id="8" x="89.03" y="-1.65" angle="90.00" type="DEFAULT_VEHTYPE" speed="14.67" pos="89.03" lane="a_2" slope="0.00"/>
        <vehicle id="9" x="116.44" y="-8.25" angle="90.00" type="DEFAULT_VEHTYPE" speed="14.03" pos="116.44" lane="a_0" slope="0.00"/>
    </timestep>
    <timestep time="16.00">
        <vehicle id="0" x="234.36" y="-8.25" angle="90.00" type="DEFAULT_VEHTYPE" speed="14.25" pos="234.36" lane="a_0" slope="0.00"/>
        <vehicle id="1" x="234.15" y="-4.95" angle="90.00" type="DEFAULT_VEHTYPE" speed="14.21" pos="234.15" lane="a_1" slope="0.00"/>
        <vehicle id="10" x="155.48" y="-4.95" angle="90.00" type="DEFAULT_VEHTYPE" speed="14.49" pos="155.48" lane="a_1" slope="0.00"/>
        <vehicle id="11" x="68.54" y="-1.65" angle="90.00" type="DEFAULT_VEHTYPE" speed="14.44" pos="68.54" lane="a_2" slope="0.00"/>
        <vehicle id="12" x="102.12" y="-8.25" angle="90.00" type="DEFAULT_VEHTYPE" speed="13.82" pos="102.12" lane="a_0" slope="0.00"/>
        <vehicle id="13" x="101.82" y="-4.95" angle="90.00" type="DEFAULT_VEHTYPE" speed="14.86" pos="101.82" lane="a_1" slope="0.00"/>
        <vehicle id="14" x="35.36" y="-1.65" angle="90.00" type="DEFAULT_VEHTYPE" speed="9.96" pos="35.36" lane="a_2" slope="0.00"/>
        <vehicle id="15" x="58.72" y="-8.25" angle="90.00" type="DEFAULT_VEHTYPE" speed="14.71" pos="58.72" lane="a_0" slope="0.00"/>
        <vehicle id="16" x="72.61" y="-4.95" angle="90.00" type="DEFAULT_VEHTYPE" speed="14.31" pos="72.61" lane="a_1" slope="0.00"/>
        <vehicle id="17" x="14.37" y="-1.65" angle="90.00" type="DEFAULT_VEHTYPE" speed="5.46" pos="14.37" lane="a_2" slope="0.00"/>
        <vehicle id="18" x="18.18" y="-8.25" angle="90.00" type="DEFAULT_VEHTYPE" speed="7.24" pos="18.18" lane="a_0" slope="0.00"/>
        <vehicle id="19" x="18.67" y="-4.95" angle="90.00" type="DEFAULT_VEHTYPE" speed="8.08" pos="18.67" lane="a_1" slope="0.00"/>
        <vehicle id="2" x="193.05" y="-1.65" angle="90.00" type="DEFAULT_VEHTYPE" speed="14.99" pos="193.05" lane="a_2" slope="0.00"/>
        <vehicle id="20" x="5.10" y="-1.65" angle="90.00" type="DEFAULT_VEHTYPE" speed="2.73" pos="5.10" lane="a_2" slope="0.00"/>
        <vehicle id="21" x="5.10" y="-8.25" angle="90.00" type="DEFAULT_VEHTYPE" speed="2.82" pos="5.10" lane="a_0" slope="0.00"/>
        <vehicle id="22" x="5.10" y="-4.95" angle="90.00" type="DEFAULT_VEHTYPE" speed="5.20" pos="5.10" lane="a_1" slope="0.00"/>
        <vehicle id="3" x="195.52" y="-8.25" angle="90.00" type="DEFAULT_VEHTYPE" speed="14.70" pos="195.52" lane="a_0" slope="0.00"/>
        <vehicle id="4" x="208.68" y="-4.95" angle="90.00" type="DEFAULT_VEHTYPE" speed="14.75" pos="208.68" lane="a_1" slope="0.00"/>
        <vehicle id="5" x="154.57" y="-1.65" angle="90.00" type="DEFAULT_VEHTYPE" speed="14.24" pos="154.57" lane="a_2" slope="0.00"/>
        <vehicle id="6" x="169.92" y="-8.25" angle="90.00" type="DEFAULT_VEHTYPE" speed="14.29" pos="169.92" lane="a_0" slope="0.00"/>
        <vehicle id="7" x="183.54" y="-4.95" angle="90.00" type="DEFAULT_VEHTYPE" speed="13.04" pos="183.54" lane="a_1" slope="0.00"/>