<fcd-export xmlns:xsi="http://www.w3.org/2001/XMLSchema-instance" xsi:noNamespaceSchemaLocation="http://sumo.dlr.de/xsd/fcd_file.xsd">
    <timestep time="-112.0">
        <vehicle angle="90.00" id="0" lane="a_0" pos="5.10" slope="0.00" speed="13.37" type="DEFAULT_VEHTYPE" x="5.10" y="-8.25" />
    </timestep>
    <timestep time="-111.0">
        <vehicle angle="90.00" id="0" lane="a_0" pos="19.17" slope="0.00" speed="14.07" type="DEFAULT_VEHTYPE" x="19.17" y="-8.25" />
    </timestep>
    <timestep time="-110.0">
        <vehicle angle="90.00" id="0" lane="a_0" pos="34.11" slope="0.00" speed="14.94" type="DEFAULT_VEHTYPE" x="34.11" y="-8.25" />
    </timestep>
    <timestep time="-109.0">
        <vehicle angle="90.00" id="0" lane="a_0" pos="48.48" slope="0.00" speed="14.36" type="DEFAULT_VEHTYPE" x="48.48" y="-8.25" />
        <vehicle angle="90.00" id="1" lane="a_1" pos="5.10" slope="0.00" speed="8.85" type="DEFAULT_VEHTYPE" x="5.10" y="-4.95" />
    </timestep>
    <timestep time="-108.0">
        <vehicle angle="90.00" id="0" lane="a_0" pos="62.51" slope="0.00" speed="14.03" type="DEFAULT_VEHTYPE" x="62.51" y="-8.25" />
        <vehicle angle="90.00" id="1" lane="a_1" pos="16.49" slope="0.00" speed="11.39" type="DEFAULT_VEHTYPE" x="16.49" y="-4.95" />
    </timestep>
    <timestep time="-107.0">
        <vehicle angle="90.00" id="0" lane="a_0" pos="76.80" slope="0.00" speed="14.29" type="DEFAULT_VEHTYPE" x="76.80" y="-8.25" />
        <vehicle angle="90.00" id="1" lane="a_1" pos="30.16" slope="0.00" speed="13.67" type="DEFAULT_VEHTYPE" x="30.16" y="-4.95" />
    </timestep>
    <timestep time="-106.0">
        <vehicle angle="90.00" id="0" lane="a_0" pos="91.79" slope="0.00" speed="14.99" type="DEFAULT_VEHTYPE" x="91.79" y="-8.25" />
        <vehicle angle="90.00" id="1" lane="a_1" pos="44.19" slope="0.00" speed="14.03" type="DEFAULT_VEHTYPE" x="44.19" y="-4.95" />
        <vehicle angle="90.00" id="2" lane="a_2" pos="5.10" slope="0.00" speed="10.10" type="DEFAULT_VEHTYPE" x="5.10" y="-1.65" />
    </timestep>
    <timestep time="-105.0">
        <vehicle angle="90.00" id="0" lane="a_0" pos="106.06" slope="0.00" speed="14.26" type="DEFAULT_VEHTYPE" x="106.06" y="-8.25" />
        <vehicle angle="90.00" id="1" lane="a_1" pos="58.61" slope="0.00" speed="14.41" type="DEFAULT_VEHTYPE" x="58.61" y="-4.95" />
        <vehicle angle="90.00" id="2" lane="a_2" pos="17.19" slope="0.00" speed="12.09" type="DEFAULT_VEHTYPE" x="17.19" y="-1.65" />
    </timestep>
    <timestep time="-104.0">
        <vehicle angle="90.00" id="0" lane="a_0" pos="119.92" slope="0.00" speed="13.86" type="DEFAULT_VEHTYPE" x="119.92" y="-8.25" />
        <vehicle angle="90.00" id="1" lane="a_1" pos="73.53" slope="0.00" speed="14.92" type="DEFAULT_VEHTYPE" x="73.53" y="-4.95" />
        <vehicle angle="90.00" id="2" lane="a_2" pos="31.53" slope="0.00" speed="14.35" type="DEFAULT_VEHTYPE" x="31.53" y="-1.65" />
    </timestep>
    <timestep time="-103.0">
        <vehicle angle="90.00" id="0" lane="a_0" pos="134.86" slope="0.00" speed="14.94" type="DEFAULT_VEHTYPE" x="134.86" y="-8.25" />
        <vehicle angle="90.00" id="1" lane="a_0" pos="87.64" slope="0.00" speed="14.11" type="DEFAULT_VEHTYPE" x="87.64" y="-8.25" />
        <vehicle angle="90.00" id="2" lane="a_2" pos="46.12" slope="0.00" speed="14.58" type="DEFAULT_VEHTYPE" x="46.12" y="-1.65" />
        <vehicle angle="90.00" id="3" lane="a_1" pos="5.10" slope="0.00" speed="7.69" type="DEFAULT_VEHTYPE" x="5.10" y="-4.95" />
    </timestep>
    <timestep time="-102.0">
        <vehicle angle="90.00" id="0" lane="a_0" pos="148.64" slope="0.00" speed="13.78" type="DEFAULT_VEHTYPE" x="148.64" y="-8.25" />
        <vehicle angle="90.00" id="1" lane="a_0" pos="101.57" slope="0.00" speed="13.93" type="DEFAULT_VEHTYPE" x="101.57" y="-8.25" />
        <vehicle angle="90.00" id="2" lane="a_2" pos="60.72" slope="0.00" speed="14.60" type="DEFAULT_VEHTYPE" x="60.72" y="-1.65" />
        <vehicle angle="90.00" id="3" lane="a_1" pos="14.57" slope="0.00" speed="9.47" type="DEFAULT_VEHTYPE" x="14.57" y="-4.95" />
    </timestep>
    <timestep time="-101.0">
        <vehicle angle="90.00" id="0" lane="a_0" pos="162.93" slope="0.00" speed="14.29" type="DEFAULT_VEHTYPE" x="162.93" y="-8.25" />
        <vehicle angle="90.00" id="1" lane="a_0" pos="116.26" slope="0.00" speed="14.69" type="DEFAULT_VEHTYPE" x="116.26" y="-8.25" />
        <vehicle angle="90.00" id="2" lane="a_2" pos="74.56" slope="0.00" speed="13.85" type="DEFAULT_VEHTYPE" x="74.56" y="-1.65" />
        <vehicle angle="90.00" id="3" lane="a_1" pos="26.13" slope="0.00" speed="11.56" type="DEFAULT_VEHTYPE" x="26.13" y="-4.95" />
    </timestep>
    <timestep time="-100.0">
        <vehicle angle="90.00" id="0" lane="a_0" pos="176.94" slope="0.00" speed="14.01" type="DEFAULT_VEHTYPE" x="176.94" y="-8.25" />
        <vehicle angle="90.00" id="1" lane="a_0" pos="131.05" slope="0.00" speed="14.79" type="DEFAULT_VEHTYPE" x="131.05" y="-8.25" />
        <vehicle angle="90.00" id="2" lane="a_1" pos="89.52" slope="0.00" speed="14.96" type="DEFAULT_VEHTYPE" x="89.52" y="-4.95" />
        <vehicle angle="90.00" id="3" lane="a_1" pos="39.89" slope="0.00" speed="13.76" type="DEFAULT_VEHTYPE" x="39.89" y="-4.95" />
        <vehicle angle="90.00" id="4" lane="a_2" pos="5.10" slope="0.00" speed="14.35" type="DEFAULT_VEHTYPE" x="5.10" y="-1.65" />
    </timestep>
    <timestep time="-99.0">
        <vehicle angle="90.00" id="0" lane="a_0" pos="191.77" slope="0.00" speed="14.83" type="DEFAULT_VEHTYPE" x="191.77" y="-8.25" />
        <vehicle angle="90.00" id="1" lane="a_0" pos="145.89" slope="0.00" speed="14.84" type="DEFAULT_VEHTYPE" x="145.89" y="-8.25" />
        <vehicle angle="90.00" id="2" lane="a_1" pos="103.63" slope="0.00" speed="14.11" type="DEFAULT_VEHTYPE" x="103.63" y="-4.95" />
        <vehicle angle="90.00" id="3" lane="a_1" pos="54.46" slope="0.00" speed="14.57" type="DEFAULT_VEHTYPE" x="54.46" y="-4.95" />
        <vehicle angle="90.00" id="4" lane="a_2" pos="20.06" slope="0.00" speed="14.96" type="DEFAULT_VEHTYPE" x="20.06" y="-1.65" />
    </timestep>
    <timestep time="-98.0">
        <vehicle angle="90.00" id="0" lane="a_0" pos="206.48" slope="0.00" speed="14.71" type="DEFAULT_VEHTYPE" x="206.48" y="-8.25" />
        <vehicle angle="90.00" id="1" lane="a_0" pos="160.67" slope="0.00" speed="14.78" type="DEFAULT_VEHTYPE" x="160.67" y="-8.25" />
        <vehicle angle="90.00" id="2" lane="a_1" pos="117.38" slope="0.00" speed="13.75" type="DEFAULT_VEHTYPE" x="117.38" y="-4.95" />
        <vehicle angle="90.00" id="3" lane="a_1" pos="69.12" slope="0.00" speed="14.66" type="DEFAULT_VEHTYPE" x="69.12" y="-4.95" />
        <vehicle angle="90.00" id="4" lane="a_2" pos="34.53" slope="0.00" speed="14.47" type="DEFAULT_VEHTYPE" x="34.53" y="-1.65" />
    </timestep>
    <timestep time="-97.0">
        <vehicle angle="90.00" id="0" lane="a_0" pos="221.36" slope="0.00" speed="14.88" type="DEFAULT_VEHTYPE" x="221.36" y="-8.25" />
        <vehicle angle="90.00" id="1" lane="a_0" pos="174.80" slope="0.00" speed="14.13" type="DEFAULT_VEHTYPE" x="174.80" y="-8.25" />
        <vehicle angle="90.00" id="2" lane="a_1" pos="132.06" slope="0.00" speed="14.69" type="DEFAULT_VEHTYPE" x="132.06" y="-4.95" />
        <vehicle angle="90.00" id="3" lane="a_0" pos="83.06" slope="0.00" speed="13.94" type="DEFAULT_VEHTYPE" x="83.06" y="-8.25" />
        <vehicle angle="90.00" id="4" lane="a_2" pos="48.78" slope="0.00" speed="14.26" type="DEFAULT_VEHTYPE" x="48.78" y="-1.65" />
        <vehicle angle="90.00" id="5" lane="a_1" pos="5.10" slope="0.00" speed="10.73" type="DEFAULT_VEHTYPE" x="5.10" y="-4.95" />
    </timestep>
    <timestep time="-96.0">
        <vehicle angle="90.00" id="0" lane="a_0" pos="235.11" slope="0.00" speed="13.75" type="DEFAULT_VEHTYPE" x="235.11" y="-8.25" />
        <vehicle angle="90.00" id="1" lane="a_0" pos="189.40" slope="0.00" speed="14.60" type="DEFAULT_VEHTYPE" x="189.40" y="-8.25" />
        <vehicle angle="90.00" id="2" lane="a_1" pos="146.16" slope="0.00" speed="14.10" type="DEFAULT_VEHTYPE" x="146.16" y="-4.95" />
        <vehicle angle="90.00" id="3" lane="a_0" pos="97.42" slope="0.00" speed="14.36" type="DEFAULT_VEHTYPE" x="97.42" y="-8.25" />
        <vehicle angle="90.00" id="4" lane="a_2" pos="63.01" slope="0.00" speed="14.22" type="DEFAULT_VEHTYPE" x="63.01" y="-1.65" />
        <vehicle angle="90.00" id="5" lane="a_1" pos="17.22" slope="0.00" speed="12.12" type="DEFAULT_VEHTYPE" x="17.22" y="-4.95" />
    </timestep>
    <timestep time="-95.0">
        <vehicle angle="90.00" id="0" lane="a_0" pos="249.88" slope="0.00" speed="14.76" type="DEFAULT_VEHTYPE" x="249.88" y="-8.25" />
        <vehicle angle="90.00" id="1" lane="a_0" pos="203.57" slope="0.00" speed="14.17" type="DEFAULT_VEHTYPE" x="203.57" y="-8.25" />
        <vehicle angle="90.00" id="2" lane="a_1" pos="160.94" slope="0.00" speed="14.78" type="DEFAULT_VEHTYPE" x="160.94" y="-4.95" />
        <vehicle angle="90.00" id="3" lane="a_0" pos="112.22" slope="0.00" speed="14.80" type="DEFAULT_VEHTYPE" x="112.22" y="-8.25" />
        <vehicle angle="90.00" id="4" lane="a_2" pos="77.25" slope="0.00" speed="14.25" type="DEFAULT_VEHTYPE" x="77.25" y="-1.65" />
        <vehicle angle="90.00" id="5" lane="a_1" pos="30.69" slope="0.00" speed="13.48" type="DEFAULT_VEHTYPE" x="30.69" y="-4.95" />
    </timestep>
    <timestep time="-94.0">
        <vehicle angle="90.00" id="0" lane="a_0" pos="263.67" slope="0.00" speed="13.79" type="DEFAULT_VEHTYPE" x="263.67" y="-8.25" />
        <vehicle angle="90.00" id="1" lane="a_0" pos="218.48" slope="0.00" speed="14.91" type="DEFAULT_VEHTYPE" x="218.48" y="-8.25" />
        <vehicle angle="90.00" id="2" lane="a_0" pos="175.58" slope="0.00" speed="14.64" type="DEFAULT_VEHTYPE" x="175.58" y="-8.25" />
        <vehicle angle="90.00" id="3" lane="a_0" pos="126.99" slope="0.00" speed="14.77" type="DEFAULT_VEHTYPE" x="126.99" y="-8.25" />
        <vehicle angle="90.00" id="4" lane="a_1" pos="92.22" slope="0.00" speed="14.96" type="DEFAULT_VEHTYPE" x="92.22" y="-4.95" />
        <vehicle angle="90.00" id="5" lane="a_1" pos="44.98" slope="0.00" speed="14.29" type="DEFAULT_VEHTYPE" x="44.98" y="-4.95" />
        <vehicle angle="90.00" id="6" lane="a_2" pos="5.10" slope="0.00" speed="14.88" type="DEFAULT_VEHTYPE" x="5.10" y="-1.65" />
    </timestep>
    <timestep time="-93.0">
        <vehicle angle="90.00" id="0" lane="a_0" pos="277.93" slope="0.00" speed="14.26" type="DEFAULT_VEHTYPE" x="277.93" y="-8.25" />
        <vehicle angle="90.00" id="1" lane="a_0" pos="233.21" slope="0.00" speed="14.73" type="DEFAULT_VEHTYPE" x="233.21" y="-8.25" />
        <vehicle angle="90.00" id="2" lane="a_0" pos="190.35" slope="0.00" speed="14.77" type="DEFAULT_VEHTYPE" x="190.35" y="-8.25" />
        <vehicle angle="90.00" id="3" lane="a_0" pos="141.93" slope="0.00" speed="14.94" type="DEFAULT_VEHTYPE" x="141.93" y="-8.25" />
        <vehicle angle="90.00" id="4" lane="a_1" pos="106.78" slope="0.00" speed="14.56" type="DEFAULT_VEHTYPE" x="106.78" y="-4.95" />
        <vehicle angle="90.00" id="5" lane="a_1" pos="59.87" slope="0.00" speed="14.89" type="DEFAULT_VEHTYPE" x="59.87" y="-4.95" />
        <vehicle angle="90.00" id="6" lane="a_2" pos="19.69" slope="0.00" speed="14.59" type="DEFAULT_VEHTYPE" x="19.69" y="-1.65" />
    </timestep>
    <timestep time="-92.0">
        <vehicle angle="90.00" id="0" lane="a_0" pos="292.55" slope="0.00" speed="14.62" type="DEFAULT_VEHTYPE" x="292.55" y="-8.25" />
        <vehicle angle="90.00" id="1" lane="a_0" pos="247.94" slope="0.00" speed="14.72" type="DEFAULT_VEHTYPE" x="247.94" y="-8.25" />
        <vehicle angle="90.00" id="2" lane="a_0" pos="204.46" slope="0.00" speed="14.12" type="DEFAULT_VEHTYPE" x="204.46" y="-8.25" />
        <vehicle angle="90.00" id="3" lane="a_0" pos="156.38" slope="0.00" speed="14.45" type="DEFAULT_VEHTYPE" x="156.38" y="-8.25" />
        <vehicle angle="90.00" id="4" lane="a_1" pos="120.84" slope="0.00" speed="14.06" type="DEFAULT_VEHTYPE" x="120.84" y="-4.95" />
        <vehicle angle="90.00" id="5" lane="a_1" pos="74.41" slope="0.00" speed="14.54" type="DEFAULT_VEHTYPE" x="74.41" y="-4.95" />
        <vehicle angle="90.00" id="6" lane="a_2" pos="34.59" slope="0.00" speed="14.90" type="DEFAULT_VEHTYPE" x="34.59" y="-1.65" />
    </timestep>
    <timestep time="-91.0">
        <vehicle angle="90.00" id="0" lane="a_0" pos="306.48" slope="0.00" speed="13.93" type="DEFAULT_VEHTYPE" x="306.48" y="-8.25" />
        <vehicle angle="90.00" id="1" lane="a_0" pos="262.18" slope="0.00" speed="14.24" type="DEFAULT_VEHTYPE" x="262.18" y="-8.25" />
        <vehicle angle="90.00" id="2" lane="a_0" pos="218.92" slope="0.00" speed="14.46" type="DEFAULT_VEHTYPE" x="218.92" y="-8.25" />
        <vehicle angle="90.00" id="3" lane="a_0" pos="170.90" slope="0.00" speed="14.53" type="DEFAULT_VEHTYPE" x="170.90" y="-8.25" />
        <vehicle angle="90.00" id="4" lane="a_1" pos="135.33" slope="0.00" speed="14.49" type="DEFAULT_VEHTYPE" x="135.33" y="-4.95" />
        <vehicle angle="90.00" id="5" lane="a_0" pos="88.75" slope="0.00" speed="14.33" type="DEFAULT_VEHTYPE" x="88.75" y="-8.25" />
        <vehicle angle="90.00" id="6" lane="a_2" pos="48.79" slope="0.00" speed="14.20" type="DEFAULT_VEHTYPE" x="48.79" y="-1.65" />
        <vehicle angle="90.00" id="7" lane="a_1" pos="5.10" slope="0.00" speed="14.65" type="DEFAULT_VEHTYPE" x="5.10" y="-4.95" />
    </timestep>
    <timestep time="-90.0">
        <vehicle angle="90.00" id="0" lane="a_0" pos="320.34" slope="0.00" speed="13.86" type="DEFAULT_VEHTYPE" x="320.34" y="-8.25" />
        <vehicle angle="90.00" id="1" lane="a_0" pos="276.36" slope="0.00" speed="14.19" type="DEFAULT_VEHTYPE" x="276.36" y="-8.25" />
        <vehicle angle="90.00" id="2" lane="a_0" pos="232.72" slope="0.00" speed="13.80" type="DEFAULT_VEHTYPE" x="232.72" y="-8.25" />
        <vehicle angle="90.00" id="3" lane="a_0" pos="185.26" slope="0.00" speed="14.36" type="DEFAULT_VEHTYPE" x="185.26" y="-8.25" />
        <vehicle angle="90.00" id="4" lane="a_1" pos="149.94" slope="0.00" speed="14.61" type="DEFAULT_VEHTYPE" x="149.94" y="-4.95" />
        <vehicle angle="90.00" id="5" lane="a_0" pos="103.19" slope="0.00" speed="14.45" type="DEFAULT_VEHTYPE" x="103.19" y="-8.25" />
        <vehicle angle="90.00" id="6" lane="a_2" pos="63.76" slope="0.00" speed="14.97" type="DEFAULT_VEHTYPE" x="63.76" y="-1.65" />
        <vehicle angle="90.00" id="7" lane="a_1" pos="19.96" slope="0.00" speed="14.86" type="DEFAULT_VEHTYPE" x="19.96" y="-4.95" />
    </timestep>
    <timestep time="-89.0">
        <vehicle angle="90.00" id="0" lane="a_0" pos="334.60" slope="0.00" speed="14.25" type="DEFAULT_VEHTYPE" x="334.60" y="-8.25" />
        <vehicle angle="90.00" id="1" lane="a_0" pos="290.10" slope="0.00" speed="13.74" type="DEFAULT_VEHTYPE" x="290.10" y="-8.25" />
        <vehicle angle="90.00" id="2" lane="a_0" pos="247.33" slope="0.00" speed="14.61" type="DEFAULT_VEHTYPE" x="247.33" y="-8.25" />
        <vehicle angle="90.00" id="3" lane="a_0" pos="199.73" slope="0.00" speed="14.47" type="DEFAULT_VEHTYPE" x="199.73" y="-8.25" />
        <vehicle angle="90.00" id="4" lane="a_1" pos="164.35" slope="0.00" speed="14.41" type="DEFAULT_VEHTYPE" x="164.35" y="-4.95" />
        <vehicle angle="90.00" id="5" lane="a_0" pos="117.75" slope="0.00" speed="14.55" type="DEFAULT_VEHTYPE" x="117.75" y="-8.25" />
        <vehicle angle="90.00" id="6" lane="a_2" pos="77.83" slope="0.00" speed="14.08" type="DEFAULT_VEHTYPE" x="77.83" y="-1.65" />
        <vehicle angle="90.00" id="7" lane="a_1" pos="33.83" slope="0.00" speed="13.86" type="DEFAULT_VEHTYPE" x="33.83" y="-4.95" />
    </timestep>
    <timestep time="-88.0">
        <vehicle angle="90.00" id="0" lane="a_0" pos="348.74" slope="0.00" speed="14.14" type="DEFAULT_VEHTYPE" x="348.74" y="-8.25" />
        <vehicle angle="90.00" id="1" lane="a_0" pos="304.09" slope="0.00" speed="13.98" type="DEFAULT_VEHTYPE" x="304.09" y="-8.25" />
        <vehicle angle="90.00" id="2" lane="a_0" pos="261.97" slope="0.00" speed="14.63" type="DEFAULT_VEHTYPE" x="261.97" y="-8.25" />
        <vehicle angle="90.00" id="3" lane="a_0" pos="213.80" slope="0.00" speed="14.07" type="DEFAULT_VEHTYPE" x="213.80" y="-8.25" />
        <vehicle angle="90.00" id="4" lane="a_1" pos="179.21" slope="0.00" speed="14.87" type="DEFAULT_VEHTYPE" x="179.21" y="-4.95" />
        <vehicle angle="90.00" id="5" lane="a_0" pos="132.59" slope="0.00" speed="14.84" type="DEFAULT_VEHTYPE" x="132.59" y="-8.25" />
        <vehicle angle="90.00" id="6" lane="a_1" pos="91.92" slope="0.00" speed="14.09" type="DEFAULT_VEHTYPE" x="91.92" y="-4.95" />
        <vehicle angle="90.00" id="7" lane="a_1" pos="48.22" slope="0.00" speed="14.39" type="DEFAULT_VEHTYPE" x="48.22" y="-4.95" />
        <vehicle angle="90.00" id="8" lane="a_2" pos="5.10" slope="0.00" speed="10.70" type="DEFAULT_VEHTYPE" x="5.10" y="-1.65" />
    </timestep>
    <timestep time="-87.0">
        <vehicle angle="90.00" id="0" lane="a_0" pos="363.68" slope="0.00" speed="14.94" type="DEFAULT_VEHTYPE" x="363.68" y="-8.25" />
        <vehicle angle="90.00" id="1" lane="a_0" pos="318.58" slope="0.00" speed="14.49" type="DEFAULT_VEHTYPE" x="318.58" y="-8.25" />
        <vehicle angle="90.00" id="2" lane="a_0" pos="276.09" slope="0.00" speed="14.12" type="DEFAULT_VEHTYPE" x="276.09" y="-8.25" />
        <vehicle angle="90.00" id="3" lane="a_0" pos="227.53" slope="0.00" speed="13.73" type="DEFAULT_VEHTYPE" x="227.53" y="-8.25" />
        <vehicle angle="90.00" id="4" lane="a_1" pos="193.07" slope="0.00" speed="13.85" type="DEFAULT_VEHTYPE" x="193.07" y="-4.95" />
        <vehicle angle="90.00" id="5" lane="a_0" pos="146.49" slope="0.00" speed="13.90" type="DEFAULT_VEHTYPE" x="146.49" y="-8.25" />
        <vehicle angle="90.00" id="6" lane="a_1" pos="106.44" slope="0.00" speed="14.52" type="DEFAULT_VEHTYPE" x="106.44" y="-4.95" />
        <vehicle angle="90.00" id="7" lane="a_1" pos="62.60" slope="0.00" speed="14.38" type="DEFAULT_VEHTYPE" x="62.60" y="-4.95" />
        <vehicle angle="90.00" id="8" lane="a_2" pos="18.22" slope="0.00" speed="13.12" type="DEFAULT_VEHTYPE" x="18.22" y="-1.65" />
    </timestep>
    <timestep time="-86.0">
        <vehicle angle="90.00" id="0" lane="a_0" pos="378.12" slope="0.00" speed="14.44" type="DEFAULT_VEHTYPE" x="378.12" y="-8.25" />
        <vehicle angle="90.00" id="1" lane="a_0" pos="332.81" slope="0.00" speed="14.23" type="DEFAULT_VEHTYPE" x="332.81" y="-8.25" />
        <vehicle angle="90.00" id="2" lane="a_0" pos="290.73" slope="0.00" speed="14.64" type="DEFAULT_VEHTYPE" x="290.73" y="-8.25" />
        <vehicle angle="90.00" id="3" lane="a_0" pos="242.04" slope="0.00" speed="14.51" type="DEFAULT_VEHTYPE" x="242.04" y="-8.25" />
        <vehicle angle="90.00" id="4" lane="a_0" pos="206.89" slope="0.00" speed="13.82" type="DEFAULT_VEHTYPE" x="206.89" y="-8.25" />
        <vehicle angle="90.00" id="5" lane="a_0" pos="160.60" slope="0.00" speed="14.11" type="DEFAULT_VEHTYPE" x="160.60" y="-8.25" />
        <vehicle angle="90.00" id="6" lane="a_1" pos="120.99" slope="0.00" speed="14.55" type="DEFAULT_VEHTYPE" x="120.99" y="-4.95" />
        <vehicle angle="90.00" id="7" lane="a_1" pos="76.74" slope="0.00" speed="14.14" type="DEFAULT_VEHTYPE" x="76.74" y="-4.95" />
        <vehicle angle="90.00" id="8" lane="a_2" pos="33.02" slope="0.00" speed="14.80" type="DEFAULT_VEHTYPE" x="33.02" y="-1.65" />
    </timestep>
    <timestep time="-85.0">
        <vehicle angle="90.00" id="0" lane="a_0" pos="392.01" slope="0.00" speed="13.89" type="DEFAULT_VEHTYPE" x="392.01" y="-8.25" />
        <vehicle angle="90.00" id="1" lane="a_0" pos="346.98" slope="0.00" speed="14.17" type="DEFAULT_VEHTYPE" x="346.98" y="-8.25" />
        <vehicle angle="90.00" id="2" lane="a_0" pos="304.66" slope="0.00" speed="13.93" type="DEFAULT_VEHTYPE" x="304.66" y="-8.25" />
        <vehicle angle="90.00" id="3" lane="a_0" pos="255.81" slope="0.00" speed="13.77" type="DEFAULT_VEHTYPE" x="255.81" y="-8.25" />
        <vehicle angle="90.00" id="4" lane="a_0" pos="221.18" slope="0.00" speed="14.29" type="DEFAULT_VEHTYPE" x="221.18" y="-8.25" />
        <vehicle angle="90.00" id="5" lane="a_0" pos="175.58" slope="0.00" speed="14.98" type="DEFAULT_VEHTYPE" x="175.58" y="-8.25" />
        <vehicle angle="90.00" id="6" lane="a_1" pos="135.25" slope="0.00" speed="14.25" type="DEFAULT_VEHTYPE" x="135.25" y="-4.95" />
        <vehicle angle="90.00" id="7" lane="a_0" pos="91.60" slope="0.00" speed="14.87" type="DEFAULT_VEHTYPE" x="91.60" y="-8.25" />
        <vehicle angle="90.00" id="8" lane="a_2" pos="47.25" slope="0.00" speed="14.23" type="DEFAULT_VEHTYPE" x="47.25" y="-1.65" />
        <vehicle angle="90.00" id="9" lane="a_1" pos="5.10" slope="0.00" speed="14.71" type="DEFAULT_VEHTYPE" x="5.10" y="-4.95" />
    </timestep>
    <timestep time="-84.0">
        <vehicle angle="90.00" id="0" lane="a_0" pos="406.79" slope="0.00" speed="14.78" type="DEFAULT_VEHTYPE" x="406.79" y="-8.25" />
        <vehicle angle="90.00" id="1" lane="a_0" pos="361.53" slope="0.00" speed="14.55" type="DEFAULT_VEHTYPE" x="361.53" y="-8.25" />
        <vehicle angle="90.00" id="2" lane="a_0" pos="318.63" slope="0.00" speed="13.96" type="DEFAULT_VEHTYPE" x="318.63" y="-8.25" />
        <vehicle angle="90.00" id="3" lane="a_0" pos="270.20" slope="0.00" speed="14.39" type="DEFAULT_VEHTYPE" x="270.20" y="-8.25" />
        <vehicle angle="90.00" id="4" lane="a_0" pos="235.74" slope="0.00" speed="14.56" type="DEFAULT_VEHTYPE" x="235.74" y="-8.25" />
        <vehicle angle="90.00" id="5" lane="a_0" pos="190.58" slope="0.00" speed="15.00" type="DEFAULT_VEHTYPE" x="190.58" y="-8.25" />
        <vehicle angle="90.00" id="6" lane="a_1" pos="149.62" slope="0.00" speed="14.37" type="DEFAULT_VEHTYPE" x="149.62" y="-4.95" />
        <vehicle angle="90.00" id="7" lane="a_0" pos="105.75" slope="0.00" speed="14.14" type="DEFAULT_VEHTYPE" x="105.75" y="-8.25" />
        <vehicle angle="90.00" id="8" lane="a_2" pos="61.09" slope="0.00" speed="13.85" type="DEFAULT_VEHTYPE" x="61.09" y="-1.65" />
        <vehicle angle="90.00" id="9" lane="a_1" pos="18.93" slope="0.00" speed="13.83" type="DEFAULT_VEHTYPE" x="18.93" y="-4.95" />
    </timestep>
    <timestep time="-83.0">
        <vehicle angle="90.00" id="0" lane="a_0" pos="420.61" slope="0.00" speed="13.82" type="DEFAULT_VEHTYPE" x="420.61" y="-8.25" />
        <vehicle angle="90.00" id="1" lane="a_0" pos="375.99" slope="0.00" speed="14.46" type="DEFAULT_VEHTYPE" x="375.99" y="-8.25" />
        <vehicle angle="90.00" id="2" lane="a_0" pos="333.48" slope="0.00" speed="14.85" type="DEFAULT_VEHTYPE" x="333.48" y="-8.25" />
        <vehicle angle="90.00" id="3" lane="a_0" pos="284.09" slope="0.00" speed="13.89" type="DEFAULT_VEHTYPE" x="284.09" y="-8.25" />
        <vehicle angle="90.00" id="4" lane="a_0" pos="249.67" slope="0.00" speed="13.93" type="DEFAULT_VEHTYPE" x="249.67" y="-8.25" />
        <vehicle angle="90.00" id="5" lane="a_0" pos="205.07" slope="0.00" speed="14.49" type="DEFAULT_VEHTYPE" x="205.07" y="-8.25" />
        <vehicle angle="90.00" id="6" lane="a_1" pos="164.61" slope="0.00" speed="14.98" type="DEFAULT_VEHTYPE" x="164.61" y="-4.95" />
        <vehicle angle="90.00" id="7" lane="a_0" pos="119.45" slope="0.00" speed="13.70" type="DEFAULT_VEHTYPE" x="119.45" y="-8.25" />
        <vehicle angle="90.00" id="8" lane="a_2" pos="74.90" slope="0.00" speed="13.81" type="DEFAULT_VEHTYPE" x="74.90" y="-1.65" />
        <vehicle angle="90.00" id="9" lane="a_1" pos="33.29" slope="0.00" speed="14.37" type="DEFAULT_VEHTYPE" x="33.29" y="-4.95" />
    </timestep>
    <timestep time="-82.0">
        <vehicle angle="90.00" id="0" lane="a_0" pos="435.01" slope="0.00" speed="14.40" type="DEFAULT_VEHTYPE" x="435.01" y="-8.25" />
        <vehicle angle="90.00" id="1" lane="a_0" pos="389.90" slope="0.00" speed="13.90" type="DEFAULT_VEHTYPE" x="389.90" y="-8.25" />
        <vehicle angle="90.00" id="10" lane="a_2" pos="5.10" slope="0.00" speed="10.85" type="DEFAULT_VEHTYPE" x="5.10" y="-1.65" />
        <vehicle angle="90.00" id="2" lane="a_0" pos="348.04" slope="0.00" speed="14.57" type="DEFAULT_VEHTYPE" x="348.04" y="-8.25" />
        <vehicle angle="90.00" id="3" lane="a_0" pos="298.82" slope="0.00" speed="14.73" type="DEFAULT_VEHTYPE" x="298.82" y="-8.25" />
        <vehicle angle="90.00" id="4" lane="a_0" pos="264.47" slope="0.00" speed="14.80" type="DEFAULT_VEHTYPE" x="264.47" y="-8.25" />
        <vehicle angle="90.00" id="5" lane="a_0" pos="219.49" slope="0.00" speed="14.42" type="DEFAULT_VEHTYPE" x="219.49" y="-8.25" />
        <vehicle angle="90.00" id="6" lane="a_0" pos="178.39" slope="0.00" speed="13.78" type="DEFAULT_VEHTYPE" x="178.39" y="-8.25" />
        <vehicle angle="90.00" id="7" lane="a_0" pos="134.03" slope="0.00" speed="14.58" type="DEFAULT_VEHTYPE" x="134.03" y="-8.25" />
        <vehicle angle="90.00" id="8" lane="a_1" pos="89.26" slope="0.00" speed="14.37" type="DEFAULT_VEHTYPE" x="89.26" y="-4.95" />
        <vehicle angle="90.00" id="9" lane="a_1" pos="47.27" slope="0.00" speed="13.98" type="DEFAULT_VEHTYPE" x="47.27" y="-4.95" />
    </timestep>
    <timestep time="-81.0">
        <vehicle angle="90.00" id="0" lane="a_0" pos="449.80" slope="0.00" speed="14.80" type="DEFAULT_VEHTYPE" x="449.80" y="-8.25" />
        <vehicle angle="90.00" id="1" lane="a_0" pos="404.14" slope="0.00" speed="14.25" type="DEFAULT_VEHTYPE" x="404.14" y="-8.25" />
        <vehicle angle="90.00" id="10" lane="a_2" pos="17.97" slope="0.00" speed="12.87" type="DEFAULT_VEHTYPE" x="17.97" y="-1.65" />
        <vehicle angle="90.00" id="2" lane="a_0" pos="362.88" slope="0.00" speed="14.83" type="DEFAULT_VEHTYPE" x="362.88" y="-8.25" />
        <vehicle angle="90.00" id="3" lane="a_0" pos="312.80" slope="0.00" speed="13.97" type="DEFAULT_VEHTYPE" x="312.80" y="-8.25" />
        <vehicle angle="90.00" id="4" lane="a_0" pos="279.32" slope="0.00" speed="14.85" type="DEFAULT_VEHTYPE" x="279.32" y="-8.25" />
        <vehicle angle="90.00" id="5" lane="a_0" pos="234.36" slope="0.00" speed="14.87" type="DEFAULT_VEHTYPE" x="234.36" y="-8.25" />
        <vehicle angle="90.00" id="6" lane="a_0" pos="193.09" slope="0.00" speed="14.71" type="DEFAULT_VEHTYPE" x="193.09" y="-8.25" />
        <vehicle angle="90.00" id="7" lane="a_0" pos="148.73" slope="0.00" speed="14.70" type="DEFAULT_VEHTYPE" x="148.73" y="-8.25" />
        <vehicle angle="90.00" id="8" lane="a_1" pos="103.79" slope="0.00" speed="14.52" type="DEFAULT_VEHTYPE" x="103.79" y="-4.95" />
        <vehicle angle="90.00" id="9" lane="a_1" pos="61.23" slope="0.00" speed="13.96" type="DEFAULT_VEHTYPE" x="61.23" y="-4.95" />
    </timestep>
    <timestep time="-80.0">
        <vehicle angle="90.00" id="0" lane="a_0" pos="464.48" slope="0.00" speed="14.67" type="DEFAULT_VEHTYPE" x="464.48" y="-8.25" />
        <vehicle angle="90.00" id="1" lane="a_0" pos="418.04" slope="0.00" speed="13.89" type="DEFAULT_VEHTYPE" x="418.04" y="-8.25" />
        <vehicle angle="90.00" id="10" lane="a_2" pos="32.72" slope="0.00" speed="14.75" type="DEFAULT_VEHTYPE" x="32.72" y="-1.65" />
        <vehicle angle="90.00" id="2" lane="a_0" pos="377.27" slope="0.00" speed="14.39" type="DEFAULT_VEHTYPE" x="377.27" y="-8.25" />
        <vehicle angle="90.00" id="3" lane="a_0" pos="327.55" slope="0.00" speed="14.75" type="DEFAULT_VEHTYPE" x="327.55" y="-8.25" />
        <vehicle angle="90.00" id="4" lane="a_0" pos="294.01" slope="0.00" speed="14.69" type="DEFAULT_VEHTYPE" x="294.01" y="-8.25" />
        <vehicle angle="90.00" id="5" lane="a_0" pos="248.14" slope="0.00" speed="13.78" type="DEFAULT_VEHTYPE" x="248.14" y="-8.25" />
        <vehicle angle="90.00" id="6" lane="a_0" pos="207.81" slope="0.00" speed="14.71" type="DEFAULT_VEHTYPE" x="207.81" y="-8.25" />
        <vehicle angle="90.00" id="7" lane="a_0" pos="162.54" slope="0.00" speed="13.81" type="DEFAULT_VEHTYPE" x="162.54" y="-8.25" />
        <vehicle angle="90.00" id="8" lane="a_1" pos="117.59" slope="0.00" speed="13.80" type="DEFAULT_VEHTYPE" x="117.59" y="-4.95" />
        <vehicle angle="90.00" id="9" lane="a_1" pos="75.81" slope="0.00" speed="14.58" type="DEFAULT_VEHTYPE" x="75.81" y="-4.95" />
    </timestep>
    <timestep time="-79.0">
        <vehicle angle="90.00" id="0" lane="a_0" pos="479.37" slope="0.00" speed="14.89" type="DEFAULT_VEHTYPE" x="479.37" y="-8.25" />
        <vehicle angle="90.00" id="1" lane="a_0" pos="432.30" slope="0.00" speed="14.26" type="DEFAULT_VEHTYPE" x="432.30" y="-8.25" />
        <vehicle angle="90.00" id="10" lane="a_2" pos="46.98" slope="0.00" speed="14.26" type="DEFAULT_VEHTYPE" x="46.98" y="-1.65" />
        <vehicle angle="90.00" id="11" lane="a_1" pos="5.10" slope="0.00" speed="0.11" type="DEFAULT_VEHTYPE" x="5.10" y="-4.95" />
        <vehicle angle="90.00" id="2" lane="a_0" pos="392.23" slope="0.00" speed="14.95" type="DEFAULT_VEHTYPE" x="392.23" y="-8.25" />
        <vehicle angle="90.00" id="3" lane="a_0" pos="341.57" slope="0.00" speed="14.03" type="DEFAULT_VEHTYPE" x="341.57" y="-8.25" />
        <vehicle angle="90.00" id="4" lane="a_0" pos="308.05" slope="0.00" speed="14.04" type="DEFAULT_VEHTYPE" x="308.05" y="-8.25" />
        <vehicle angle="90.00" id="5" lane="a_0" pos="262.28" slope="0.00" speed="14.13" type="DEFAULT_VEHTYPE" x="262.28" y="-8.25" />
        <vehicle angle="90.00" id="6" lane="a_0" pos="222.65" slope="0.00" speed="14.84" type="DEFAULT_VEHTYPE" x="222.65" y="-8.25" />
        <vehicle angle="90.00" id="7" lane="a_0" pos="176.95" slope="0.00" speed="14.41" type="DEFAULT_VEHTYPE" x="176.95" y="-8.25" />
        <vehicle angle="90.00" id="8" lane="a_1" pos="131.56" slope="0.00" speed="13.97" type="DEFAULT_VEHTYPE" x="131.56" y="-4.95" />