<?xml version="1.0" encoding="UTF-8"?>

<!-- generated on Tue Apr 26 01:35:44 2016 by SUMO Version 0.25.0
<?xml version="1.0" encoding="UTF-8"?>

<configuration xmlns:xsi="http://www.w3.org/2001/XMLSchema-instance" xsi:noNamespaceSchemaLocation="http://sumo.dlr.de/xsd/sumoConfiguration.xsd">

    <input>
        <net-file value="input.net.xml"/>
        <route-files value="input.rou.xml"/>
    </input>

    <output>
        <fcd-output value="input.fcd.xml"/>
    </output>

    <time>
        <step-length value="1"/>
    </time>

</configuration>
-->

<fcd-export xmlns:xsi="http://www.w3.org/2001/XMLSchema-instance" xsi:noNamespaceSchemaLocation="http://sumo.dlr.de/xsd/fcd_file.xsd">
    <timestep time="0.00">
        <vehicle id="0" x="5.10" y="-8.25" angle="90.00" type="DEFAULT_VEHTYPE" speed="13.37" pos="5.10" lane="a_0" slope="0.00"/>
    </timestep>
    <timestep time="1.00">
        <vehicle id="0" x="19.17" y="-8.25" angle="90.00" type="DEFAULT_VEHTYPE" speed="14.07" pos="19.17" lane="a_0" slope="0.00"/>
    </timestep>
    <timestep time="2.00">
        <vehicle id="0" x="34.11" y="-8.25" angle="90.00" type="DEFAULT_VEHTYPE" speed="14.94" pos="34.11" lane="a_0" slope="0.00"/>
    </timestep>
    <timestep time="3.00">
        <vehicle id="0" x="48.48" y="-8.25" angle="90.00" type="DEFAULT_VEHTYPE" speed="14.36" pos="48.48" lane="a_0" slope="0.00"/>
        <vehicle id="1" x="5.10" y="-4.95" angle="90.00" type="DEFAULT_VEHTYPE" speed="8.85" pos="5.10" lane="a_1" slope="0.00"/>
    </timestep>
    <timestep time="4.00">
        <vehicle id="0" x="62.51" y="-8.25" angle="90.00" type="DEFAULT_VEHTYPE" speed="14.03" pos="62.51" lane="a_0" slope="0.00"/>
        <vehicle id="1" x="16.49" y="-4.95" angle="90.00" type="DEFAULT_VEHTYPE" speed="11.39" pos="16.49" lane="a_1" slope="0.00"/>
    </timestep>
    <timestep time="5.00">
        <vehicle id="0" x="76.80" y="-8.25" angle="90.00" type="DEFAULT_VEHTYPE" speed="14.29" pos="76.80" lane="a_0" slope="0.00"/>
        <vehicle id="1" x="30.16" y="-4.95" angle="90.00" type="DEFAULT_VEHTYPE" speed="13.67" pos="30.16" lane="a_1" slope="0.00"/>
    </timestep>
    <timestep time="6.00">
        <vehicle id="0" x="91.79" y="-8.25" angle="90.00" type="DEFAULT_VEHTYPE" speed="14.99" pos="91.79" lane="a_0" slope="0.00"/>
        <vehicle id="1" x="44.19" y="-4.95" angle="90.00" type="DEFAULT_VEHTYPE" speed="14.03" pos="44.19" lane="a_1" slope="0.00"/>
        <vehicle id="2" x="5.10" y="-1.65" angle="90.00" type="DEFAULT_VEHTYPE" speed="10.10" pos="5.10" lane="a_2" slope="0.00"/>
    </timestep>
    <timestep time="7.00">
        <vehicle id="0" x="106.06" y="-8.25" angle="90.00" type="DEFAULT_VEHTYPE" speed="14.26" pos="106.06" lane="a_0" slope="0.00"/>
        <vehicle id="1" x="58.61" y="-4.95" angle="90.00" type="DEFAULT_VEHTYPE" speed="14.41" pos="58.61" lane="a_1" slope="0.00"/>
        <vehicle id="2" x="17.19" y="-1.65" angle="90.00" type="DEFAULT_VEHTYPE" speed="12.09" pos="17.19" lane="a_2" slope="0.00"/>
    </timestep>
    <timestep time="8.00">
        <vehicle id="0" x="119.92" y="-8.25" angle="90.00" type="DEFAULT_VEHTYPE" speed="13.86" pos="119.92" lane="a_0" slope="0.00"/>
        <vehicle id="1" x="73.53" y="-4.95" angle="90.00" type="DEFAULT_VEHTYPE" speed="14.92" pos="73.53" lane="a_1" slope="0.00"/>
        <vehicle id="2" x="31.53" y="-1.65" angle="90.00" type="DEFAULT_VEHTYPE" speed="14.35" pos="31.53" lane="a_2" slope="0.00"/>
    </timestep>
    <timestep time="9.00">
        <vehicle id="0" x="134.86" y="-8.25" angle="90.00" type="DEFAULT_VEHTYPE" speed="14.94" pos="134.86" lane="a_0" slope="0.00"/>
        <vehicle id="1" x="87.64" y="-8.25" angle="90.00" type="DEFAULT_VEHTYPE" speed="14.11" pos="87.64" lane="a_0" slope="0.00"/>
        <vehicle id="2" x="46.12" y="-1.65" angle="90.00" type="DEFAULT_VEHTYPE" speed="14.58" pos="46.12" lane="a_2" slope="0.00"/>
        <vehicle id="3" x="5.10" y="-4.95" angle="90.00" type="DEFAULT_VEHTYPE" speed="7.69" pos="5.10" lane="a_1" slope="0.00"/>
    </timestep>
    <timestep time="10.00">
        <vehicle id="0" x="148.64" y="-8.25" angle="90.00" type="DEFAULT_VEHTYPE" speed="13.78" pos="148.64" lane="a_0" slope="0.00"/>
        <vehicle id="1" x="101.57" y="-8.25" angle="90.00" type="DEFAULT_VEHTYPE" speed="13.93" pos="101.57" lane="a_0" slope="0.00"/>
        <vehicle id="2" x="60.72" y="-1.65" angle="90.00" type="DEFAULT_VEHTYPE" speed="14.60" pos="60.72" lane="a_2" slope="0.00"/>
        <vehicle id="3" x="14.57" y="-4.95" angle="90.00" type="DEFAULT_VEHTYPE" speed="9.47" pos="14.57" lane="a_1" slope="0.00"/>
    </timestep>
    <timestep time="11.00">
        <vehicle id="0" x="162.93" y="-8.25" angle="90.00" type="DEFAULT_VEHTYPE" speed="14.29" pos="162.93" lane="a_0" slope="0.00"/>
        <vehicle id="1" x="116.26" y="-8.25" angle="90.00" type="DEFAULT_VEHTYPE" speed="14.69" pos="116.26" lane="a_0" slope="0.00"/>
        <vehicle id="2" x="74.56" y="-1.65" angle="90.00" type="DEFAULT_VEHTYPE" speed="13.85" pos="74.56" lane="a_2" slope="0.00"/>
        <vehicle id="3" x="26.13" y="-4.95" angle="90.00" type="DEFAULT_VEHTYPE" speed="11.56" pos="26.13" lane="a_1" slope="0.00"/>
    </timestep>
    <timestep time="12.00">
        <vehicle id="0" x="176.94" y="-8.25" angle="90.00" type="DEFAULT_VEHTYPE" speed="14.01" pos="176.94" lane="a_0" slope="0.00"/>
        <vehicle id="1" x="131.05" y="-8.25" angle="90.00" type="DEFAULT_VEHTYPE" speed="14.79" pos="131.05" lane="a_0" slope="0.00"/>
        <vehicle id="2" x="89.52" y="-4.95" angle="90.00" type="DEFAULT_VEHTYPE" speed="14.96" pos="89.52" lane="a_1" slope="0.00"/>
        <vehicle id="3" x="39.89" y="-4.95" angle="90.00" type="DEFAULT_VEHTYPE" speed="13.76" pos="39.89" lane="a_1" slope="0.00"/>
        <vehicle id="4" x="5.10" y="-1.65" angle="90.00" type="DEFAULT_VEHTYPE" speed="14.35" pos="5.10" lane="a_2" slope="0.00"/>
    </timestep>
    <timestep time="13.00">
        <vehicle id="0" x="191.77" y="-8.25" angle="90.00" type="DEFAULT_VEHTYPE" speed="14.83" pos="191.77" lane="a_0" slope="0.00"/>
        <vehicle id="1" x="145.89" y="-8.25" angle="90.00" type="DEFAULT_VEHTYPE" speed="14.84" pos="145.89" lane="a_0" slope="0.00"/>
        <vehicle id="2" x="103.63" y="-4.95" angle="90.00" type="DEFAULT_VEHTYPE" speed="14.11" pos="103.63" lane="a_1" slope="0.00"/>
        <vehicle id="3" x="54.46" y="-4.95" angle="90.00" type="DEFAULT_VEHTYPE" speed="14.57" pos="54.46" lane="a_1" slope="0.00"/>
        <vehicle id="4" x="20.06" y="-1.65" angle="90.00" type="DEFAULT_VEHTYPE" speed="14.96" pos="20.06" lane="a_2" slope="0.00"/>
    </timestep>
    <timestep time="14.00">
        <vehicle id="0" x="206.48" y="-8.25" angle="90.00" type="DEFAULT_VEHTYPE" speed="14.71" pos="206.48" lane="a_0" slope="0.00"/>
        <vehicle id="1" x="160.67" y="-8.25" angle="90.00" type="DEFAULT_VEHTYPE" speed="14.78" pos="160.67" lane="a_0" slope="0.00"/>
        <vehicle id="2" x="117.38" y="-4.95" angle="90.00" type="DEFAULT_VEHTYPE" speed="13.75" pos="117.38" lane="a_1" slope="0.00"/>
        <vehicle id="3" x="69.12" y="-4.95" angle="90.00" type="DEFAULT_VEHTYPE" speed="14.66" pos="69.12" lane="a_1" slope="0.00"/>
        <vehicle id="4" x="34.53" y="-1.65" angle="90.00" type="DEFAULT_VEHTYPE" speed="14.47" pos="34.53" lane="a_2" slope="0.00"/>
    </timestep>
    <timestep time="15.00">
        <vehicle id="0" x="221.36" y="-8.25" angle="90.00" type="DEFAULT_VEHTYPE" speed="14.88" pos="221.36" lane="a_0" slope="0.00"/>
        <vehicle id="1" x="174.80" y="-8.25" angle="90.00" type="DEFAULT_VEHTYPE" speed="14.13" pos="174.80" lane="a_0" slope="0.00"/>
        <vehicle id="2" x="132.06" y="-4.95" angle="90.00" type="DEFAULT_VEHTYPE" speed="14.69" pos="132.06" lane="a_1" slope="0.00"/>
        <vehicle id="3" x="83.06" y="-8.25" angle="90.00" type="DEFAULT_VEHTYPE" speed="13.94" pos="83.06" lane="a_0" slope="0.00"/>
        <vehicle id="4" x="48.78" y="-1.65" angle="90.00" type="DEFAULT_VEHTYPE" speed="14.26" pos="48.78" lane="a_2" slope="0.00"/>
        <vehicle id="5" x="5.10" y="-4.95" angle="90.00" type="DEFAULT_VEHTYPE" speed="10.73" pos="5.10" lane="a_1" slope="0.00"/>
    </timestep>
    <timestep time="16.00">
        <vehicle id="0" x="235.11" y="-8.25" angle="90.00" type="DEFAULT_VEHTYPE" speed="13.75" pos="235.11" lane="a_0" slope="0.00"/>
        <vehicle id="1" x="189.40" y="-8.25" angle="90.00" type="DEFAULT_VEHTYPE" speed="14.60" pos="189.40" lane="a_0" slope="0.00"/>
        <vehicle id="2" x="146.16" y="-4.95" angle="90.00" type="DEFAULT_VEHTYPE" speed="14.10" pos="146.16" lane="a_1" slope="0.00"/>
        <vehicle id="3" x="97.42" y="-8.25" angle="90.00" type="DEFAULT_VEHTYPE" speed="14.36" pos="97.42" lane="a_0" slope="0.00"/>
        <vehicle id="4" x="63.01" y="-1.65" angle="90.00" type="DEFAULT_VEHTYPE" speed="14.22" pos="63.01" lane="a_2" slope="0.00"/>
        <vehicle id="5" x="17.22" y="-4.95" angle="90.00" type="DEFAULT_VEHTYPE" speed="12.12" pos="17.22" lane="a_1" slope="0.00"/>
    </timestep>
    <timestep time="17.00">
        <vehicle id="0" x="249.88" y="-8.25" angle="90.00" type="DEFAULT_VEHTYPE" speed="14.76" pos="249.88" lane="a_0" slope="0.00"/>
        <vehicle id="1" x="203.57" y="-8.25" angle="90.00" type="DEFAULT_VEHTYPE" speed="14.17" pos="203.57" lane="a_0" slope="0.00"/>
        <vehicle id="2" x="160.94" y="-4.95" angle="90.00" type="DEFAULT_VEHTYPE" speed="14.78" pos="160.94" lane="a_1" slope="0.00"/>
        <vehicle id="3" x="112.22" y="-8.25" angle="90.00" type="DEFAULT_VEHTYPE" speed="14.80" pos="112.22" lane="a_0" slope="0.00"/>
        <vehicle id="4" x="77.25" y="-1.65" angle="90.00" type="DEFAULT_VEHTYPE" speed="14.25" pos="77.25" lane="a_2" slope="0.00"/>
        <vehicle id="5" x="30.69" y="-4.95" angle="90.00" type="DEFAULT_VEHTYPE" speed="13.48" pos="30.69" lane="a_1" slope="0.00"/>
    </timestep>
    <timestep time="18.00">
        <vehicle id="0" x="263.67" y="-8.25" angle="90.00" type="DEFAULT_VEHTYPE" speed="13.79" pos="263.67" lane="a_0" slope="0.00"/>
        <vehicle id="1" x="218.48" y="-8.25" angle="90.00" type="DEFAULT_VEHTYPE" speed="14.91" pos="218.48" lane="a_0" slope="0.00"/>
        <vehicle id="2" x="175.58" y="-8.25" angle="90.00" type="DEFAULT_VEHTYPE" speed="14.64" pos="175.58" lane="a_0" slope="0.00"/>
        <vehicle id="3" x="126.99" y="-8.25" angle="90.00" type="DEFAULT_VEHTYPE" speed="14.77" pos="126.99" lane="a_0" slope="0.00"/>
        <vehicle id="4" x="92.22" y="-4.95" angle="90.00" type="DEFAULT_VEHTYPE" speed="14.96" pos="92.22" lane="a_1" slope="0.00"/>
        <vehicle id="5" x="44.98" y="-4.95" angle="90.00" type="DEFAULT_VEHTYPE" speed="14.29" pos="44.98" lane="a_1" slope="0.00"/>
        <vehicle id="6" x="5.10" y="-1.65" angle="90.00" type="DEFAULT_VEHTYPE" speed="14.88" pos="5.10" lane="a_2" slope="0.00"/>
    </timestep>
    <timestep time="19.00">
        <vehicle id="0" x="277.93" y="-8.25" angle="90.00" type="DEFAULT_VEHTYPE" speed="14.26" pos="277.93" lane="a_0" slope="0.00"/>
        <vehicle id="1" x="233.21" y="-8.25" angle="90.00" type="DEFAULT_VEHTYPE" speed="14.73" pos="233.21" lane="a_0" slope="0.00"/>
        <vehicle id="2" x="190.35" y="-8.25" angle="90.00" type="DEFAULT_VEHTYPE" speed="14.77" pos="190.35" lane="a_0" slope="0.00"/>
        <vehicle id="3" x="141.93" y="-8.25" angle="90.00" type="DEFAULT_VEHTYPE" speed="14.94" pos="141.93" lane="a_0" slope="0.00"/>
        <vehicle id="4" x="106.78" y="-4.95" angle="90.00" type="DEFAULT_VEHTYPE" speed="14.56" pos="106.78" lane="a_1" slope="0.00"/>
        <vehicle id="5" x="59.87" y="-4.95" angle="90.00" type="DEFAULT_VEHTYPE" speed="14.89" pos="59.87" lane="a_1" slope="0.00"/>
        <vehicle id="6" x="19.69" y="-1.65" angle="90.00" type="DEFAULT_VEHTYPE" speed="14.59" pos="19.69" lane="a_2" slope="0.00"/>
    </timestep>
    <timestep time="20.00">
        <vehicle id="0" x="292.55" y="-8.25" angle="90.00" type="DEFAULT_VEHTYPE" speed="14.62" pos="292.55" lane="a_0" slope="0.00"/>
        <vehicle id="1" x="247.94" y="-8.25" angle="90.00" type="DEFAULT_VEHTYPE" speed="14.72" pos="247.94" lane="a_0" slope="0.00"/>
        <vehicle id="2" x="204.46" y="-8.25" angle="90.00" type="DEFAULT_VEHTYPE" speed="14.12" pos="204.46" lane="a_0" slope="0.00"/>
        <vehicle id="3" x="156.38" y="-8.25" angle="90.00" type="DEFAULT_VEHTYPE" speed="14.45" pos="156.38" lane="a_0" slope="0.00"/>
        <vehicle id="4" x="120.84" y="-4.95" angle="90.00" type="DEFAULT_VEHTYPE" speed="14.06" pos="120.84" lane="a_1" slope="0.00"/>
        <vehicle id="5" x="74.41" y="-4.95" angle="90.00" type="DEFAULT_VEHTYPE" speed="14.54" pos="74.41" lane="a_1" slope="0.00"/>
        <vehicle id="6" x="34.59" y="-1.65" angle="90.00" type="DEFAULT_VEHTYPE" speed="14.90" pos="34.59" lane="a_2" slope="0.00"/>
    </timestep>
    <timestep time="21.00">
        <vehicle id="0" x="306.48" y="-8.25" angle="90.00" type="DEFAULT_VEHTYPE" speed="13.93" pos="306.48" lane="a_0" slope="0.00"/>
        <vehicle id="1" x="262.18" y="-8.25" angle="90.00" type="DEFAULT_VEHTYPE" speed="14.24" pos="262.18" lane="a_0" slope="0.00"/>
        <vehicle id="2" x="218.92" y="-8.25" angle="90.00" type="DEFAULT_VEHTYPE" speed="14.46" pos="218.92" lane="a_0" slope="0.00"/>
        <vehicle id="3" x="170.90" y="-8.25" angle="90.00" type="DEFAULT_VEHTYPE" speed="14.53" pos="170.90" lane="a_0" slope="0.00"/>
        <vehicle id="4" x="135.33" y="-4.95" angle="90.00" type="DEFAULT_VEHTYPE" speed="14.49" pos="135.33" lane="a_1" slope="0.00"/>
        <vehicle id="5" x="88.75" y="-8.25" angle="90.00" type="DEFAULT_VEHTYPE" speed="14.33" pos="88.75" lane="a_0" slope="0.00"/>
        <vehicle id="6" x="48.79" y="-1.65" angle="90.00" type="DEFAULT_VEHTYPE" speed="14.20" pos="48.79" lane="a_2" slope="0.00"/>
        <vehicle id="7" x="5.10" y="-4.95" angle="90.00" type="DEFAULT_VEHTYPE" speed="14.65" pos="5.10" lane="a_1" slope="0.00"/>
    </timestep>
    <timestep time="22.00">
        <vehicle id="0" x="320.34" y="-8.25" angle="90.00" type="DEFAULT_VEHTYPE" speed="13.86" pos="320.34" lane="a_0" slope="0.00"/>
        <vehicle id="1" x="276.36" y="-8.25" angle="90.00" type="DEFAULT_VEHTYPE" speed="14.19" pos="276.36" lane="a_0" slope="0.00"/>
        <vehicle id="2" x="232.72" y="-8.25" angle="90.00" type="DEFAULT_VEHTYPE" speed="13.80" pos="232.72" lane="a_0" slope="0.00"/>
        <vehicle id="3" x="185.26" y="-8.25" angle="90.00" type="DEFAULT_VEHTYPE" speed="14.36" pos="185.26" lane="a_0" slope="0.00"/>
        <vehicle id="4" x="149.94" y="-4.95" angle="90.00" type="DEFAULT_VEHTYPE" speed="14.61" pos="149.94" lane="a_1" slope="0.00"/>
        <vehicle id="5" x="103.19" y="-8.25" angle="90.00" type="DEFAULT_VEHTYPE" speed="14.45" pos="103.19" lane="a_0" slope="0.00"/>
        <vehicle id="6" x="63.76" y="-1.65" angle="90.00" type="DEFAULT_VEHTYPE" speed="14.97" pos="63.76" lane="a_2" slope="0.00"/>
        <vehicle id="7" x="19.96" y="-4.95" angle="90.00" type="DEFAULT_VEHTYPE" speed="14.86" pos="19.96" lane="a_1" slope="0.00"/>
    </timestep>
    <timestep time="23.00">
        <vehicle id="0" x="334.60" y="-8.25" angle="90.00" type="DEFAULT_VEHTYPE" speed="14.25" pos="334.60" lane="a_0" slope="0.00"/>
        <vehicle id="1" x="290.10" y="-8.25" angle="90.00" type="DEFAULT_VEHTYPE" speed="13.74" pos="290.10" lane="a_0" slope="0.00"/>
        <vehicle id="2" x="247.33" y="-8.25" angle="90.00" type="DEFAULT_VEHTYPE" speed="14.61" pos="247.33" lane="a_0" slope="0.00"/>
        <vehicle id="3" x="199.73" y="-8.25" angle="90.00" type="DEFAULT_VEHTYPE" speed="14.47" pos="199.73" lane="a_0" slope="0.00"/>
        <vehicle id="4" x="164.35" y="-4.95" angle="90.00" type="DEFAULT_VEHTYPE" speed="14.41" pos="164.35" lane="a_1" slope="0.00"/>
        <vehicle id="5" x="117.75" y="-8.25" angle="90.00" type="DEFAULT_VEHTYPE" speed="14.55" pos="117.75" lane="a_0" slope="0.00"/>
        <vehicle id="6" x="77.83" y="-1.65" angle="90.00" type="DEFAULT_VEHTYPE" speed="14.08" pos="77.83" lane="a_2" slope="0.00"/>
        <vehicle id="7" x="33.83" y="-4.95" angle="90.00" type="DEFAULT_VEHTYPE" speed="13.86" pos="33.83" lane="a_1" slope="0.00"/>
    </timestep>
    <timestep time="24.00">
        <vehicle id="0" x="348.74" y="-8.25" angle="90.00" type="DEFAULT_VEHTYPE" speed="14.14" pos="348.74" lane="a_0" slope="0.00"/>
        <vehicle id="1" x="304.09" y="-8.25" angle="90.00" type="DEFAULT_VEHTYPE" speed="13.98" pos="304.09" lane="a_0" slope="0.00"/>
        <vehicle id="2" x="261.97" y="-8.25" angle="90.00" type="DEFAULT_VEHTYPE" speed="14.63" pos="261.97" lane="a_0" slope="0.00"/>
        <vehicle id="3" x="213.80" y="-8.25" angle="90.00" type="DEFAULT_VEHTYPE" speed="14.07" pos="213.80" lane="a_0" slope="0.00"/>
        <vehicle id="4" x="179.21" y="-4.95" angle="90.00" type="DEFAULT_VEHTYPE" speed="14.87" pos="179.21" lane="a_1" slope="0.00"/>
        <vehicle id="5" x="132.59" y="-8.25" angle="90.00" type="DEFAULT_VEHTYPE" speed="14.84" pos="132.59" lane="a_0" slope="0.00"/>
        <vehicle id="6" x="91.92" y="-4.95" angle="90.00" type="DEFAULT_VEHTYPE" speed="14.09" pos="91.92" lane="a_1" slope="0.00"/>
        <vehicle id="7" x="48.22" y="-4.95" angle="90.00" type="DEFAULT_VEHTYPE" speed="14.39" pos="48.22" lane="a_1" slope="0.00"/>
        <vehicle id="8" x="5.10" y="-1.65" angle="90.00" type="DEFAULT_VEHTYPE" speed="10.70" pos="5.10" lane="a_2" slope="0.00"/>
    </timestep>
    <timestep time="25.00">
        <vehicle id="0" x="363.68" y="-8.25" angle="90.00" type="DEFAULT_VEHTYPE" speed="14.94" pos="363.68" lane="a_0" slope="0.00"/>
        <vehicle id="1" x="318.58" y="-8.25" angle="90.00" type="DEFAULT_VEHTYPE" speed="14.49" pos="318.58" lane="a_0" slope="0.00"/>
        <vehicle id="2" x="276.09" y="-8.25" angle="90.00" type="DEFAULT_VEHTYPE" speed="14.12" pos="276.09" lane="a_0" slope="0.00"/>
        <vehicle id="3" x="227.53" y="-8.25" angle="90.00" type="DEFAULT_VEHTYPE" speed="13.73" pos="227.53" lane="a_0" slope="0.00"/>
        <vehicle id="4" x="193.07" y="-4.95" angle="90.00" type="DEFAULT_VEHTYPE" speed="13.85" pos="193.07" lane="a_1" slope="0.00"/>
        <vehicle id="5" x="146.49" y="-8.25" angle="90.00" type="DEFAULT_VEHTYPE" speed="13.90" pos="146.49" lane="a_0" slope="0.00"/>
        <vehicle id="6" x="106.44" y="-4.95" angle="90.00" type="DEFAULT_VEHTYPE" speed="14.52" pos="106.44" lane="a_1" slope="0.00"/>
        <vehicle id="7" x="62.60" y="-4.95" angle="90.00" type="DEFAULT_VEHTYPE" speed="14.38" pos="62.60" lane="a_1" slope="0.00"/>
        <vehicle id="8" x="18.22" y="-1.65" angle="90.00" type="DEFAULT_VEHTYPE" speed="13.12" pos="18.22" lane="a_2" slope="0.00"/>
    </timestep>
    <timestep time="26.00">
        <vehicle id="0" x="378.12" y="-8.25" angle="90.00" type="DEFAULT_VEHTYPE" speed="14.44" pos="378.12" lane="a_0" slope="0.00"/>
        <vehicle id="1" x="332.81" y="-8.25" angle="90.00" type="DEFAULT_VEHTYPE" speed="14.23" pos="332.81" lane="a_0" slope="0.00"/>
        <vehicle id="2" x="290.73" y="-8.25" angle="90.00" type="DEFAULT_VEHTYPE" speed="14.64" pos="290.73" lane="a_0" slope="0.00"/>
        <vehicle id="3" x="242.04" y="-8.25" angle="90.00" type="DEFAULT_VEHTYPE" speed="14.51" pos="242.04" lane="a_0" slope="0.00"/>
        <vehicle id="4" x="206.89" y="-8.25" angle="90.00" type="DEFAULT_VEHTYPE" speed="13.82" pos="206.89" lane="a_0" slope="0.00"/>
        <vehicle id="5" x="160.60" y="-8.25" angle="90.00" type="DEFAULT_VEHTYPE" speed="14.11" pos="160.60" lane="a_0" slope="0.00"/>
        <vehicle id="6" x="120.99" y="-4.95" angle="90.00" type="DEFAULT_VEHTYPE" speed="14.55" pos="120.99" lane="a_1" slope="0.00"/>
        <vehicle id="7" x="76.74" y="-4.95" angle="90.00" type="DEFAULT_VEHTYPE" speed="14.14" pos="76.74" lane="a_1" slope="0.00"/>
        <vehicle id="8" x="33.02" y="-1.65" angle="90.00" type="DEFAULT_VEHTYPE" speed="14.80" pos="33.02" lane="a_2" slope="0.00"/>
    </timestep>
    <timestep time="27.00">
        <vehicle id="0" x="392.01" y="-8.25" angle="90.00" type="DEFAULT_VEHTYPE" speed="13.89" pos="392.01" lane="a_0" slope="0.00"/>
        <vehicle id="1" x="346.98" y="-8.25" angle="90.00" type="DEFAULT_VEHTYPE" speed="14.17" pos="346.98" lane="a_0" slope="0.00"/>
        <vehicle id="2" x="304.66" y="-8.25" angle="90.00" type="DEFAULT_VEHTYPE" speed="13.93" pos="304.66" lane="a_0" slope="0.00"/>
        <vehicle id="3" x="255.81" y="-8.25" angle="90.00" type="DEFAULT_VEHTYPE" speed="13.77" pos="255.81" lane="a_0" slope="0.00"/>
        <vehicle id="4" x="221.18" y="-8.25" angle="90.00" type="DEFAULT_VEHTYPE" speed="14.29" pos="221.18" lane="a_0" slope="0.00"/>
        <vehicle id="5" x="175.58" y="-8.25" angle="90.00" type="DEFAULT_VEHTYPE" speed="14.98" pos="175.58" lane="a_0" slope="0.00"/>
        <vehicle id="6" x="135.25" y="-4.95" angle="90.00" type="DEFAULT_VEHTYPE" speed="14.25" pos="135.25" lane="a_1" slope="0.00"/>
        <vehicle id="7" x="91.60" y="-8.25" angle="90.00" type="DEFAULT_VEHTYPE" speed="14.87" pos="91.60" lane="a_0" slope="0.00"/>
        <vehicle id="8" x="47.25" y="-1.65" angle="90.00" type="DEFAULT_VEHTYPE" speed="14.23" pos="47.25" lane="a_2" slope="0.00"/>
        <vehicle id="9" x="5.10" y="-4.95" angle="90.00" type="DEFAULT_VEHTYPE" speed="14.71" pos="5.10" lane="a_1" slope="0.00"/>
    </timestep>
    <timestep time="28.00">
        <vehicle id="0" x="406.79" y="-8.25" angle="90.00" type="DEFAULT_VEHTYPE" speed="14.78" pos="406.79" lane="a_0" slope="0.00"/>
        <vehicle id="1" x="361.53" y="-8.25" angle="90.00" type="DEFAULT_VEHTYPE" speed="14.55" pos="361.53" lane="a_0" slope="0.00"/>
        <vehicle id="2" x="318.63" y="-8.25" angle="90.00" type="DEFAULT_VEHTYPE" speed="13.96" pos="318.63" lane="a_0" slope="0.00"/>
        <vehicle id="3" x="270.20" y="-8.25" angle="90.00" type="DEFAULT_VEHTYPE" speed="14.39" pos="270.20" lane="a_0" slope="0.00"/>
        <vehicle id="4" x="235.74" y="-8.25" angle="90.00" type="DEFAULT_VEHTYPE" speed="14.56" pos="235.74" lane="a_0" slope="0.00"/>
        <vehicle id="5" x="190.58" y="-8.25" angle="90.00" type="DEFAULT_VEHTYPE" speed="15.00" pos="190.58" lane="a_0" slope="0.00"/>
        <vehicle id="6" x="149.62" y="-4.95" angle="90.00" type="DEFAULT_VEHTYPE" speed="14.37" pos="149.62" lane="a_1" slope="0.00"/>
        <vehicle id="7" x="105.75" y="-8.25" angle="90.00" type="DEFAULT_VEHTYPE" speed="14.14" pos="105.75" lane="a_0" slope="0.00"/>
        <vehicle id="8" x="61.09" y="-1.65" angle="90.00" type="DEFAULT_VEHTYPE" speed="13.85" pos="61.09" lane="a_2" slope="0.00"/>
        <vehicle id="9" x="18.93" y="-4.95" angle="90.00" type="DEFAULT_VEHTYPE" speed="13.83" pos="18.93" lane="a_1" slope="0.00"/>
    </timestep>
    <timestep time="29.00">
        <vehicle id="0" x="420.61" y="-8.25" angle="90.00" type="DEFAULT_VEHTYPE" speed="13.82" pos="420.61" lane="a_0" slope="0.00"/>
        <vehicle id="1" x="375.99" y="-8.25" angle="90.00" type="DEFAULT_VEHTYPE" speed="14.46" pos="375.99" lane="a_0" slope="0.00"/>
        <vehicle id="2" x="333.48" y="-8.25" angle="90.00" type="DEFAULT_VEHTYPE" speed="14.85" pos="333.48" lane="a_0" slope="0.00"/>
        <vehicle id="3" x="284.09" y="-8.25" angle="90.00" type="DEFAULT_VEHTYPE" speed="13.89" pos="284.09" lane="a_0" slope="0.00"/>
        <vehicle id="4" x="249.67" y="-8.25" angle="90.00" type="DEFAULT_VEHTYPE" speed="13.93" pos="249.67" lane="a_0" slope="0.00"/>
        <vehicle id="5" x="205.07" y="-8.25" angle="90.00" type="DEFAULT_VEHTYPE" speed="14.49" pos="205.07" lane="a_0" slope="0.00"/>
        <vehicle id="6" x="164.61" y="-4.95" angle="90.00" type="DEFAULT_VEHTYPE" speed="14.98" pos="164.61" lane="a_1" slope="0.00"/>
        <vehicle id="7" x="119.45" y="-8.25" angle="90.00" type="DEFAULT_VEHTYPE" speed="13.70" pos="119.45" lane="a_0" slope="0.00"/>
        <vehicle id="8" x="74.90" y="-1.65" angle="90.00" type="DEFAULT_VEHTYPE" speed="13.81" pos="74.90" lane="a_2" slope="0.00"/>
        <vehicle id="9" x="33.29" y="-4.95" angle="90.00" type="DEFAULT_VEHTYPE" speed="14.37" pos="33.29" lane="a_1" slope="0.00"/>
    </timestep>
    <timestep time="30.00">
        <vehicle id="0" x="435.01" y="-8.25" angle="90.00" type="DEFAULT_VEHTYPE" speed="14.40" pos="435.01" lane="a_0" slope="0.00"/>
        <vehicle id="1" x="389.90" y="-8.25" angle="90.00" type="DEFAULT_VEHTYPE" speed="13.90" pos="389.90" lane="a_0" slope="0.00"/>
        <vehicle id="10" x="5.10" y="-1.65" angle="90.00" type="DEFAULT_VEHTYPE" speed="10.85" pos="5.10" lane="a_2" slope="0.00"/>
        <vehicle id="2" x="348.04" y="-8.25" angle="90.00" type="DEFAULT_VEHTYPE" speed="14.57" pos="348.04" lane="a_0" slope="0.00"/>
        <vehicle id="3" x="298.82" y="-8.25" angle="90.00" type="DEFAULT_VEHTYPE" speed="14.73" pos="298.82" lane="a_0" slope="0.00"/>
        <vehicle id="4" x="264.47" y="-8.25" angle="90.00" type="DEFAULT_VEHTYPE" speed="14.80" pos="264.47" lane="a_0" slope="0.00"/>
        <vehicle id="5" x="219.49" y="-8.25" angle="90.00" type="DEFAULT_VEHTYPE" speed="14.42" pos="219.49" lane="a_0" slope="0.00"/>
        <vehicle id="6" x="178.39" y="-8.25" angle="90.00" type="DEFAULT_VEHTYPE" speed="13.78" pos="178.39" lane="a_0" slope="0.00"/>
        <vehicle id="7" x="134.03" y="-8.25" angle="90.00" type="DEFAULT_VEHTYPE" speed="14.58" pos="134.03" lane="a_0" slope="0.00"/>
        <vehicle id="8" x="89.26" y="-4.95" angle="90.00" type="DEFAULT_VEHTYPE" speed="14.37" pos="89.26" lane="a_1" slope="0.00"/>
        <vehicle id="9" x="47.27" y="-4.95" angle="90.00" type="DEFAULT_VEHTYPE" speed="13.98" pos="47.27" lane="a_1" slope="0.00"/>
    </timestep>
    <timestep time="31.00">
        <vehicle id="0" x="449.80" y="-8.25" angle="90.00" type="DEFAULT_VEHTYPE" speed="14.80" pos="449.80" lane="a_0" slope="0.00"/>
        <vehicle id="1" x="404.14" y="-8.25" angle="90.00" type="DEFAULT_VEHTYPE" speed="14.25" pos="404.14" lane="a_0" slope="0.00"/>
        <vehicle id="10" x="17.97" y="-1.65" angle="90.00" type="DEFAULT_VEHTYPE" speed="12.87" pos="17.97" lane="a_2" slope="0.00"/>
        <vehicle id="2" x="362.88" y="-8.25" angle="90.00" type="DEFAULT_VEHTYPE" speed="14.83" pos="362.88" lane="a_0" slope="0.00"/>
        <vehicle id="3" x="312.80" y="-8.25" angle="90.00" type="DEFAULT_VEHTYPE" speed="13.97" pos="312.80" lane="a_0" slope="0.00"/>
        <vehicle id="4" x="279.32" y="-8.25" angle="90.00" type="DEFAULT_VEHTYPE" speed="14.85" pos="279.32" lane="a_0" slope="0.00"/>
        <vehicle id="5" x="234.36" y="-8.25" angle="90.00" type="DEFAULT_VEHTYPE" speed="14.87" pos="234.36" lane="a_0" slope="0.00"/>
        <vehicle id="6" x="193.09" y="-8.25" angle="90.00" type="DEFAULT_VEHTYPE" speed="14.71" pos="193.09" lane="a_0" slope="0.00"/>
        <vehicle id="7" x="148.73" y="-8.25" angle="90.00" type="DEFAULT_VEHTYPE" speed="14.70" pos="148.73" lane="a_0" slope="0.00"/>
        <vehicle id="8" x="103.79" y="-4.95" angle="90.00" type="DEFAULT_VEHTYPE" speed="14.52" pos="103.79" lane="a_1" slope="0.00"/>
        <vehicle id="9" x="61.23" y="-4.95" angle="90.00" type="DEFAULT_VEHTYPE" speed="13.96" pos="61.23" lane="a_1" slope="0.00"/>
    </timestep>
    <timestep time="32.00">
        <vehicle id="0" x="464.48" y="-8.25" angle="90.00" type="DEFAULT_VEHTYPE" speed="14.67" pos="464.48" lane="a_0" slope="0.00"/>
        <vehicle id="1" x="418.04" y="-8.25" angle="90.00" type="DEFAULT_VEHTYPE" speed="13.89" pos="418.04" lane="a_0" slope="0.00"/>
        <vehicle id="10" x="32.72" y="-1.65" angle="90.00" type="DEFAULT_VEHTYPE" speed="14.75" pos="32.72" lane="a_2" slope="0.00"/>
        <vehicle id="2" x="377.27" y="-8.25" angle="90.00" type="DEFAULT_VEHTYPE" speed="14.39" pos="377.27" lane="a_0" slope="0.00"/>
        <vehicle id="3" x="327.55" y="-8.25" angle="90.00" type="DEFAULT_VEHTYPE" speed="14.75" pos="327.55" lane="a_0" slope="0.00"/>
        <vehicle id="4" x="294.01" y="-8.25" angle="90.00" type="DEFAULT_VEHTYPE" speed="14.69" pos="294.01" lane="a_0" slope="0.00"/>
        <vehicle id="5" x="248.14" y="-8.25" angle="90.00" type="DEFAULT_VEHTYPE" speed="13.78" pos="248.14" lane="a_0" slope="0.00"/>
        <vehicle id="6" x="207.81" y="-8.25" angle="90.00" type="DEFAULT_VEHTYPE" speed="14.71" pos="207.81" lane="a_0" slope="0.00"/>
        <vehicle id="7" x="162.54" y="-8.25" angle="90.00" type="DEFAULT_VEHTYPE" speed="13.81" pos="162.54" lane="a_0" slope="0.00"/>
        <vehicle id="8" x="117.59" y="-4.95" angle="90.00" type="DEFAULT_VEHTYPE" speed="13.80" pos="117.59" lane="a_1" slope="0.00"/>
        <vehicle id="9" x="75.81" y="-4.95" angle="90.00" type="DEFAULT_VEHTYPE" speed="14.58" pos="75.81" lane="a_1" slope="0.00"/>
    </timestep>
    <timestep time="33.00">
        <vehicle id="0" x="479.37" y="-8.25" angle="90.00" type="DEFAULT_VEHTYPE" speed="14.89" pos="479.37" lane="a_0" slope="0.00"/>
        <vehicle id="1" x="432.30" y="-8.25" angle="90.00" type="DEFAULT_VEHTYPE" speed="14.26" pos="432.30" lane="a_0" slope="0.00"/>
        <vehicle id="10" x="46.98" y="-1.65" angle="90.00" type="DEFAULT_VEHTYPE" speed="14.26" pos="46.98" lane="a_2" slope="0.00"/>
        <vehicle id="11" x="5.10" y="-4.95" angle="90.00" type="DEFAULT_VEHTYPE" speed="0.11" pos="5.10" lane="a_1" slope="0.00"/>
        <vehicle id="2" x="392.23" y="-8.25" angle="90.00" type="DEFAULT_VEHTYPE" speed="14.95" pos="392.23" lane="a_0" slope="0.00"/>
        <vehicle id="3" x="341.57" y="-8.25" angle="90.00" type="DEFAULT_VEHTYPE" speed="14.03" pos="341.57" lane="a_0" slope="0.00"/>
        <vehicle id="4" x="308.05" y="-8.25" angle="90.00" type="DEFAULT_VEHTYPE" speed="14.04" pos="308.05" lane="a_0" slope="0.00"/>
        <vehicle id="5" x="262.28" y="-8.25" angle="90.00" type="DEFAULT_VEHTYPE" speed="14.13" pos="262.28" lane="a_0" slope="0.00"/>
        <vehicle id="6" x="222.65" y="-8.25" angle="90.00" type="DEFAULT_VEHTYPE" speed="14.84" pos="222.65" lane="a_0" slope="0.00"/>